LAMMPS data file via write_data, version 22 Dec 2022, timestep = 0

29 atoms
1 atom types

0 22.5 xlo xhi
0 22.5 ylo yhi
0 22.5 zlo zhi

Masses

1 28

Pair Coeffs # lj/cut

1 0.1892 3.75

Atoms # atomic

167 1 2.5828467421619417 5.905195515791508 6.621033907924331 1 0 0
147 1 8.973592341399568 0.16648190243471495 9.561334220255416 0 0 0
170 1 0.02621766995928354 2.6403790056427834 6.349947838275668 1 0 0
156 1 9.643567646221987 0.4414300529479187 5.614899895673107 0 1 0
179 1 6.095611158104432 1.9367342611945857 0.6927278974059635 0 0 0
172 1 7.869377430234746 4.126469955372842 4.580539951371282 0 0 0
180 1 1.6494555937356576 6.900163915194647 2.5549226764379642 0 0 0
182 1 5.66142003664813 8.486555945121943 0.5457696644802437 0 0 0
183 1 7.328087439447683 8.665594797192886 7.1517564208022115 0 0 0
186 1 13.91635195045562 0.1272313076198247 4.376587166393449 0 0 0
174 1 11.935091763937422 3.5872764962666093 2.3560727529023175 0 0 0
175 1 19.09594522886721 0.5514615711530026 5.414626368514554 0 0 0
187 1 18.07790796532198 9.8991731665559 1.9034103049912536 0 0 0
119 1 2.4986908172716813 15.496565885141749 7.282831577483022 0 0 0
158 1 5.508960991403536 12.107382519220652 4.278000541393645 0 0 0
135 1 0.041979291495863436 14.045952170875832 0.8181359101171293 1 0 0
120 1 4.228290099058434 21.871694875122838 11.075766189524796 0 0 0
188 1 8.506438599203918 16.713536820241035 7.413337791065377 0 0 0
153 1 20.50194878154525 11.75317143101859 5.552241129359342 0 0 0
176 1 10.769459625365892 2.307923524551058 13.770677129631247 0 0 0
181 1 7.025782803551193 7.331579284896878 19.353041261831784 0 0 0
165 1 8.044948256595504 21.945348600598674 19.97393026201703 0 0 0
146 1 7.604267519714434 21.424203840514735 13.59394753123352 0 0 0
90 1 1.896778465433409 16.155668539300397 13.321140021933779 0 0 0
126 1 20.06574161656468 16.919349602618883 11.508771215569585 -1 -1 0
177 1 20.858155492859964 19.019368497430982 16.026336322550815 0 0 0
173 1 21.6115490124149 17.80425165724207 21.05760326751397 0 0 0
185 1 19.793948489843846 21.39226880548162 22.361813729564574 0 0 0
178 1 11.269577235574635 11.284598302927147 21.24367729655638 0 0 0

Velocities

167 0.001641867546386822 0.0034211727723923693 0.0033739719504143066
147 -2.576653142638315e-05 -0.00232160767985549 -0.00033200722819112924
170 -0.0008486773940168832 -6.15828002686068e-05 0.0007497684507808233
156 -0.00027381928121652784 -0.0017726824212075843 -0.0017418101094345863
179 0.0012247801916463643 -0.0010441689320202497 -0.0017273598011189896
172 0.0014631153751484458 -0.0004689268216551331 -0.0017934319721510828
180 -0.0017081489897875011 -0.002913460943701143 -0.0012976043512312385
182 -0.0007470998181077877 0.0006082590888504735 -0.0010145705656782241
183 -0.000988718591460079 -0.001275676104394082 0.0007196820355873639
186 -0.0014894479984216607 0.0028872545173769366 0.0012207914968428752
174 -0.0014251360568676857 0.0032366562432547285 -8.265482235170687e-05
175 0.00015078627116193427 -0.0018037440863594234 0.0007398136676481632
187 -0.000179859738501298 0.002786006377718291 -0.001476862221530182
119 -0.00014286924528040106 0.0031996979231063813 0.0008821316382616575
158 -0.00024040654975670357 -9.00611715258184e-05 0.0012334427543377823
135 -0.0010883971230821428 -0.001688533971353332 0.0015983770154402858
120 0.00014134451815979364 -0.002880905482857647 0.0007566150454781434
188 0.002494768662358243 -0.0019737113902275815 -0.0005351882352751254
153 0.0018281403407734201 -0.0019817272763709495 0.0010226945503121296
176 -0.0016249142311621336 -0.0022289061115634834 -0.0011459835931099127
181 -0.0008358777569495165 0.0005559377639214795 -0.001546664188829908
165 -0.0025244423224348765 0.0006884257049803173 -0.000720698204878224
146 -0.0008867862197852915 0.0014766260091040484 0.0014005208827665475
90 -0.00021579720110873776 0.0026331888010312876 0.0010842019951676609
126 0.0006131912482808375 0.00131716558526171 0.00041388825277926183
177 -0.0004484221787019374 0.0021313039848962585 -0.002822276898313333
173 -0.0004119056144660132 0.0016347521705455087 -0.00014687979457645825
185 -0.0016771517273154886 0.0004165152168971667 -0.0017121554974958238
178 -0.00346368296934345 0.0010132313182491394 0.0007623095367055353
