LAMMPS data file via write_data, version 22 Dec 2022, timestep = 0

162 atoms
1 atom types

0 22.5 xlo xhi
0 22.5 ylo yhi
0 22.5 zlo zhi

Masses

1 28

Pair Coeffs # lj/cut

1 0.1892 3.75

Atoms # atomic

11643 1 2.7814242021559776 5.896565635640437 6.078638208833827 1 0 0
11555 1 7.893562255144846 3.600822219439206 4.519042115201704 0 0 0
11801 1 9.30882985415349 7.00335875759058 9.950638824818013 0 0 0
11663 1 7.415218660568447 7.580028174016633 6.033520697631648 1 0 0
11714 1 2.8991886965926694 1.1644236329777238 6.967999456668272 0 1 0
11838 1 8.358353352806699 3.3448006221301823 10.064056142030317 0 0 0
11690 1 6.07698953108722 4.4630489828824205 0.9642553049904193 0 0 1
11705 1 0.6959152627717216 3.747821404481218 9.13434511592349 0 0 0
11790 1 1.6874580025614536 8.606649050305897 3.4505884912566307 0 0 0
11747 1 3.170919881281863 3.1504447044108135 3.524147032771321 0 0 0
11383 1 5.311771005770144 9.435293977817208 2.48588517354146 1 0 0
11809 1 9.386515496944337 6.16595714314187 1.2417047853775909 0 0 1
11667 1 1.1008588832806867 7.635251298842616 9.668579647628867 1 0 1
11502 1 11.036729811242187 7.317937547489071 4.576360648300664 0 1 0
11856 1 6.3164010622149345 0.2526526463928904 2.833027925264569 0 0 0
11859 1 5.139807358914899 6.242281282666268 10.021517772004712 0 0 0
11780 1 5.46802026194893 10.016542575795475 8.531071394230727 0 0 0
11668 1 11.15866401845527 0.16615817773441488 4.120493182502923 0 0 0
11495 1 8.26453977206928 0.11994916927995902 6.98568808868795 1 1 0
11490 1 10.271655898667722 10.720688908230878 8.618480635629302 0 0 1
11696 1 2.7797862376457836 5.867296112872339 0.6457690452904286 0 -1 1
11647 1 11.75582111685343 11.085510955464818 2.6826284968678884 0 -1 0
11779 1 11.500518284272651 4.210803770325512 7.478967861029773 0 0 0
11738 1 21.052021982405332 8.333458286632519 0.9334234329561868 0 0 0
11277 1 20.866124567280615 2.4556022847330325 6.307599507881213 -2 0 2
11783 1 13.629044486968349 7.350692476774877 8.08845715554825 0 0 0
11820 1 22.37310194567455 5.2244009523300505 3.0068058110805262 0 0 0
11706 1 20.316869849486686 7.63156032265702 6.134342896581784 0 0 0
11377 1 18.289397595817814 7.40539291100827 9.43865531610263 -1 0 0
11627 1 17.53052051203819 4.958245825235862 0.23758473886995168 0 0 0
11607 1 16.434487748162127 4.935583360696053 6.349543217965156 0 0 0
11749 1 13.834665029232678 4.215146313987283 3.46409918412757 0 0 0
11829 1 17.54754900329168 2.1560983230155437 4.044514922213054 0 1 0
11811 1 17.220042097950376 7.747540251932815 3.409014234975448 0 0 0
11845 1 18.233016526667868 2.808763706967589 9.391623004289169 0 0 0
11737 1 20.696880095264362 1.4637611079792652 1.9329418069370774 -1 1 0
11765 1 14.747924646710919 0.8695372707999794 7.312910335516975 0 0 0
11562 1 11.597877609356276 0.02898045048529241 10.574431307415677 0 1 -1
11323 1 11.389324442664789 1.3759078669249138 0.3835194077731998 0 1 0
11807 1 9.431124035935442 12.401671966957704 5.400748658180587 0 0 0
11745 1 1.581949098772343 21.81850306681288 3.5810439240099425 0 -1 1
11763 1 6.197238650730465 21.490002826782877 9.977509739798315 0 -1 0
11634 1 2.1346247746304856 21.138587214350036 10.23531158116428 1 -1 0
11755 1 2.7563749837020324 12.394351080010804 5.3586017416597285 0 0 0
11764 1 7.8740268882243045 18.26991038595789 8.383856794044311 0 0 0
11694 1 4.360758192539553 19.762942012521915 6.266404455186045 0 0 0
11711 1 6.012381719896725 14.599566304636891 6.910882032667691 1 0 0
11803 1 4.154695952848835 14.474879530712435 1.8002726839856535 1 0 0
11846 1 8.0848244370822 18.644314040497107 4.486078634618815 0 0 0
11788 1 4.22424774534268 17.431855974221545 9.703358741339013 1 0 0
11834 1 3.329943829369723 17.86594021663347 2.8572209586190183 1 0 0
11775 1 7.500836544903383 13.059810191187921 1.2298832953581098 0 0 1
11830 1 0.3390701815202115 14.752540810384112 7.9534001257053575 1 0 0
11376 1 10.052491026256465 15.216678292358559 8.212059671158048 1 -1 0
11574 1 1.1364961013367771 11.589975167340615 9.71263749325304 1 0 0
11796 1 13.67010140450212 11.394305466857865 6.591981480406588 0 0 0
11662 1 11.463560608664316 15.063149821275465 3.3590461764759554 0 0 0
11679 1 21.987710004201034 13.442040606607689 3.8764752556460427 -1 0 0
11835 1 22.153398828186745 20.174105334642384 6.688359334686935 0 0 0
11793 1 11.28344370577645 19.83836298474968 1.3666846874946144 0 0 0
11800 1 20.710535023226658 21.962135370337467 10.109169261813705 0 -1 0
11735 1 14.697864546765507 21.50943748793074 3.6158596517592168 0 -1 0
11661 1 12.033749031850027 18.71997830328526 5.175343316130003 0 0 0
11631 1 18.55368464512453 21.277830608551326 5.499037921893905 0 -1 0
11794 1 20.11609708546483 12.243715406741817 7.62484110967481 0 0 0
11683 1 15.941463802913884 17.182135573673154 4.152586724214521 0 -1 0
11246 1 19.6668504176973 17.254970237964315 7.284789465733204 -1 -1 0
11805 1 20.087167312431674 18.02102003946014 3.28380320700063 0 0 0
11814 1 16.007957703670456 12.745125589540756 1.8257834114254399 0 0 1
11452 1 16.925099958398 12.655000794518225 5.598353468625943 -1 0 0
11812 1 17.371798617007098 14.81935603861666 9.41694103037794 0 0 0
11858 1 15.201318674348908 18.062959782110045 8.16505792348881 0 0 0
11687 1 17.43495347813467 16.76310700958742 0.5395101353244802 0 0 1
11852 1 18.03916969408243 20.825048443314184 1.0891867813603884 0 -1 0
11833 1 16.853499572190234 21.267309801079037 10.675826734945092 0 0 0
11759 1 13.832187548667257 16.576130450971487 0.5244894777538691 0 0 0
11387 1 13.700529158208756 13.793562014723946 10.896781464990568 1 -1 0
11372 1 2.926390197326631 9.340046468349144 21.660993544925503 0 0 0
11797 1 7.480679630991391 5.282558072257121 13.453520425340868 0 1 0
11777 1 2.391522772326843 5.823234497254342 13.102195353993293 0 1 0
11654 1 1.411602999973856 3.8116205606198004 19.90676233703583 0 0 0
11740 1 6.608459018687022 2.3707270724097045 16.309905989705523 0 0 0
11718 1 4.73024642431654 6.251653488144102 19.540175238177223 0 0 0
11254 1 2.6347633295854687 7.46728034246123 16.5807157454923 0 0 -1
11839 1 7.491645881669437 7.092333218125789 17.344397040011543 0 0 0
11840 1 7.764590956626737 9.480208025537536 13.356285209234931 0 0 0
11815 1 6.784930334559138 9.824132935527768 20.70224741529777 0 0 0
11816 1 4.184179935457268 2.5121752303150293 12.12909590482203 0 0 0
11844 1 4.351496786042812 1.606483021567799 21.660143490023987 0 0 0
11414 1 7.794471272404516 3.678675302853205 19.995815053580202 0 0 1
11850 1 8.192312851404921 0.7020935624382003 13.086503898765196 0 1 0
10953 1 2.9669386327579286 1.8376007610176035 16.555990422403294 0 1 1
11635 1 10.094810308699827 4.47685831877257 16.55776361052775 0 0 0
11613 1 3.8581400089236917 9.259129980001184 12.197573880058526 1 0 1
11767 1 0.21259048707437345 1.0083162591365635 13.271367308344384 1 1 0
11710 1 10.397699746255649 8.139635318256767 19.850793941109792 0 0 0
11462 1 4.120286600720335 11.156898305591579 17.989822078258616 0 0 0
11693 1 8.03504967132353 0.07982593452550191 21.634481570047555 0 0 0
11787 1 0.5628705171695347 0.16478206830322506 20.492221972203048 0 1 0
11726 1 13.158931676139554 5.664680877544298 22.291508887098864 0 0 0
11853 1 14.65363024647982 2.5635525863913613 11.628319479584842 0 0 0
11736 1 17.649704272462813 8.57970728309811 22.140307030007374 0 0 -1
11621 1 11.773207284171711 4.794825073701709 13.125013704702688 0 1 0
11827 1 11.767242558890604 0.5456872743301517 16.366019666831022 0 0 0
11837 1 15.94875579581071 1.2386601908312445 21.66182730075057 0 0 -1
11642 1 14.92852630881991 7.241672336003623 12.286951212346024 -1 0 -1
11841 1 21.59019989920323 3.9897059088059246 16.487209301203116 0 0 0
11782 1 19.99290678347132 10.28430980224364 12.394846308694644 0 0 0
11854 1 18.272731319196854 2.295281741672791 13.300232294621056 -1 0 0
11676 1 14.480789294923092 3.125679772405732 15.299934823205657 0 1 0
11744 1 15.81546523879067 7.024268355464677 18.878250295006737 -1 0 0
11804 1 11.863688421605003 10.011301915399393 12.4512921178021 0 0 0
11681 1 20.211670998815276 3.0544770886443837 20.096428846286823 0 0 0
11569 1 16.50467148097454 9.0135807383403 15.251469285577333 0 0 0
11657 1 12.351092337328529 7.808913480401441 16.408865107413746 0 0 0
11425 1 21.97900456095993 11.129656054605546 20.629309755810223 0 0 0
11836 1 19.849728054762693 7.87941639655243 19.351376856608002 0 0 0
11798 1 12.780893888222453 3.4835793550515497 19.018220351318917 0 1 0
11742 1 17.90214726184598 5.389029844845192 15.424602313164929 0 0 0
11855 1 20.87227713450429 6.361799613741136 12.766108147225392 0 0 0
11802 1 17.681122668870305 1.6286957034043763 16.988687116880307 -1 0 0
11862 1 13.80966478367786 10.03601927381755 21.875935051532437 0 0 0
11720 1 21.84533553190775 0.05428477402510978 16.8641970399135 0 1 0
11677 1 9.071175388559327 13.244755516408345 11.605964275359128 0 0 0
11813 1 5.628046236293403 20.073093383374186 22.48049437020927 0 0 0
11832 1 8.894960296291373 16.59769976911959 21.54001959298737 0 0 -1
11823 1 10.332102210182747 12.141846541381357 16.014820996678818 0 0 0
11773 1 3.973945572494495 20.603236915126086 18.60283252415382 0 0 0
11819 1 0.8432902138881954 18.178624818650366 17.14732705668885 1 0 0
11573 1 5.966546225345932 17.24240938934606 15.674606739857516 1 -1 0
11751 1 10.220612650607064 11.836818752967211 20.912781119771648 0 0 0
11605 1 1.6574509056087026 15.27737056523436 13.76708989439864 0 0 0
11702 1 4.825726513669709 20.98551524662669 14.054750054867355 0 0 0
11646 1 4.846696758105746 16.932413483239927 20.07341281304761 0 0 0
11768 1 4.395849985487693 14.050706091593336 11.717281409407613 0 0 0
11795 1 8.548414354933612 20.200063369330028 16.96504833012123 0 0 0
11789 1 10.538019251794577 17.489564911224672 15.117462953141649 0 0 0
11772 1 0.27032591880779244 19.867717402692747 13.726387057093143 1 0 0
11851 1 1.3192005617633478 18.303841556563903 22.165041169461347 0 0 0
11770 1 1.468961607417537 14.337735866586538 18.826709720225335 1 -1 0
11860 1 6.647122591802443 13.189400423639176 15.25292010360999 0 0 0
11861 1 6.922374000038195 13.83981864193446 19.331914992459083 0 0 0
11843 1 10.878470361874648 19.451372027374518 20.209664083416442 0 0 0
11799 1 14.082285136721246 11.466292873707738 17.484328405924288 0 0 0
11606 1 18.99614933971135 21.28195252887995 14.776152885414714 0 0 0
11433 1 11.463070233102378 15.821407752959686 18.400103993900174 0 0 -1
11259 1 13.741207475420667 18.974039394862032 12.180109446253685 0 -1 0
11682 1 21.867373853627303 12.452357914043766 16.27946133342546 0 0 -1
11728 1 18.24206494690945 13.385562707383933 21.152423001431135 0 0 0
11722 1 20.504071837525817 16.93537329693109 20.319001520899597 0 0 0
11776 1 20.275542590196952 18.04431344035282 11.275992009917276 -1 0 0
11857 1 15.05447733265091 19.600529863778746 16.10542052942581 0 0 0
11757 1 15.165393553052702 19.26944615751012 21.081569272829963 0 0 -1
11808 1 17.42787399744981 12.778275139060925 16.970262197065306 0 0 -1
11664 1 18.314121628093623 20.942203368964734 19.112022189708462 -1 -1 -1
11818 1 14.26778021187885 13.582021047632217 20.527747554717468 0 0 -1
11792 1 17.594687755263724 13.417102717523035 13.245373409821358 0 0 0
11826 1 21.390297296871555 14.226668520470497 11.617823547040029 0 0 0
11633 1 16.807152928694734 17.319272571624847 13.514111298841485 0 0 0
11651 1 13.336412585962757 14.586332276038036 14.48656337148817 0 0 0
11282 1 20.108617421057374 16.03299571109608 15.058916392065136 1 0 0
11828 1 15.707204175976681 16.480585639821637 17.702848482272987 0 0 0

Velocities

11643 0.00043550422827514046 0.00016871855336321521 -0.002870108845602044
11555 0.000425408043870998 -0.00013028044882600772 0.0001278499218242741
11801 -0.000304736646631837 0.0003976496976595489 -0.001013266253241311
11663 0.00018260920130176608 0.004417169291696032 0.0003350384743831071
11714 -0.0024534962615196973 -0.0003277328403001082 -0.0001391420363527389
11838 0.0008231041128903482 0.002898520947587836 -0.0006659619450120683
11690 0.0021446849202421095 -0.002051198934453208 0.0011629352880636373
11705 0.0010392126761043657 0.00041145091758802563 -0.0026116868226609426
11790 -0.00028301416855988583 0.00022504579524703874 0.000877767337844811
11747 0.001354398535708171 0.0006506964879217867 -0.0021615021014060524
11383 -6.705313679474016e-05 -0.0003132291279823697 0.0012819750438384184
11809 -0.000301745800877137 9.408809357969262e-05 -0.0028842027003005218
11667 -0.001692343847056917 0.000706879465492596 -0.00014913696170804926
11502 -0.0006424049600131841 0.0012002067531250158 -0.002587488180413432
11856 -0.0013342551231263233 0.0005692325156590808 -0.0004926677357709068
11859 0.002276688614602876 0.0005029385041664912 0.001322702731152908
11780 0.0015579063132029833 -0.0005103195430719023 0.0017220498624894635
11668 0.0013706297357797717 0.0003582250401137585 0.00103109192256122
11495 -0.000666827958721502 -0.0015718301252651183 0.0021354316438225406
11490 -0.002260225082468206 0.002658001815268571 0.00011144077061743368
11696 0.0006946038531002434 0.0009165236237893931 -0.001528024023241628
11647 -0.0005869960854674137 -0.001059490836467035 -0.0013064322756392035
11779 -7.030720432049314e-06 -0.0028194800814822416 -0.0002596174541159716
11738 -0.00038252815784303214 -0.002321256834553732 -0.001595795227086349
11277 0.0027002363098644505 0.0015632355454145482 -0.0012726384385027233
11783 0.0017196070418672989 0.0014602802516464398 0.0009469640199048279
11820 0.0010667667297418629 -0.0025181108461924946 -0.0021730474784272345
11706 -0.0006902482465459811 -0.00013632095289495844 -0.00034737677240068935
11377 0.0016476366296238614 0.0009584008172573433 0.0038678751403512465
11627 -0.001156844512417402 -5.48676837036031e-05 0.0008647085489569969
11607 -0.0017608121467434575 -0.0003122866675490822 0.002390085518548345
11749 0.0010458674675372878 0.00027263699849515785 0.0005447151852790513
11829 0.0009582710722955783 -0.0010680302570381197 -0.0021194061137446664
11811 0.002142351570404675 -0.0027934021595639826 0.0003626498763312622
11845 0.001033210422048108 9.224326893216835e-05 0.001889872139144671
11737 -0.0006995575704626978 0.0010709797919554326 4.2282508877536e-05
11765 0.0017927693472599667 0.0013332909159373615 0.001828654326282642
11562 -4.451285352909671e-05 -0.0003415927461555731 0.0011252736889324037
11323 -0.0016966752499707263 0.0013584258900479597 -0.0008858014560845973
11807 -0.002788806064670852 0.0007972953511694189 0.0015712440210201126
11745 0.0010077981195312433 0.0008928931800984654 0.0009427864440997945
11763 0.0009370012413883789 -0.00031932005783632866 0.00028327508012207053
11634 5.558774870400988e-05 0.0011096856186818926 0.0021966893841184557
11755 -0.0016661370909910429 -0.0011684842520006207 0.0003117687121997024
11764 -0.0015271221764073908 0.0004412498535808237 0.0011030537332542998
11694 0.00037218191319014966 0.0013924456623961566 -0.0010242739974852353
11711 -0.0006983369174454224 0.0016348280235967995 -0.0005001869757623431
11803 0.0004682625707623568 -6.2221726615149835e-06 0.0005985482423815222
11846 0.00041671289639582824 0.00029865337094106613 0.0010022881276217407
11788 -0.0024686013353083847 -0.005455644267034469 0.001164962095203879
11834 0.0003158992863124854 0.0011488259274267337 0.0009327090898414822
11775 -0.0031791666512787685 -0.0014894906313696122 0.0011436404966778321
11830 -0.0005436403381617222 -0.001604219898348239 0.000603711943055623
11376 0.002003329729418075 0.000722439459068725 -0.0013884935407472278
11574 3.0360284229364658e-05 -0.002121959778874629 -0.0010036240962693192
11796 -0.00039613243580424897 -0.002340302447623996 0.0002475541958405024
11662 0.0016583645962137852 0.0010852174761370361 0.001464770406519951
11679 -0.002305420482542255 0.000613400872847707 -0.0019840951286915895
11835 0.0005258935372306215 -0.0014258794265231826 -0.0005633303516297096
11793 -0.00018777916326024834 -0.003159635106915073 0.0006959136055674914
11800 0.0006567157570389055 -0.00024255949817605625 0.0006986254313218504
11735 0.0008642302758947037 0.0014112673378408166 -0.0012237419212965154
11661 0.00037759881830989363 0.0008555772154304181 -0.0014943339522887678
11631 -0.001001638701972406 0.0004147036961012727 0.000405709383055224
11794 -0.00187798740909311 0.002831244360635582 -0.0005561373609185484
11683 0.0013685699850187858 -0.0001853017247149376 -0.0007098131278083107
11246 0.0003420950811282214 0.001755904656011959 0.0009719838740965064
11805 0.00035782822663069487 0.0014899986430506299 0.000151111067175379
11814 -0.0006557640069479076 -0.0024805434337867153 -0.0015290169121918743
11452 0.00015675971393529616 0.0008257540166973854 -0.0030514064975840902
11812 0.001223844873209637 0.000282252993546894 9.43135756947509e-05
11858 0.0025854624817418354 0.0017966173730453916 -0.0015819679675348503
11687 0.00028598644383345193 -0.0015850674470218415 0.0013845620883503346
11852 0.0007656225536835385 0.0008420824691572667 -0.0003508344705531695
11833 0.0020986405085293585 0.0012489764411208013 0.002182098608031039
11759 0.0013555358398342277 -0.0004542354704080409 0.0006343720144242401
11387 0.003257332067194694 -0.0015177296531409046 0.00045389397270000835
11372 -0.0018575545832290581 0.001840200398035304 0.0016092475395804156
11797 -0.0025079246985191053 0.0017749560180405474 -0.002078962895674602
11777 0.003173854384064499 0.0004539204836943805 0.002614540212438592
11654 0.0009688554924547583 -0.0014689484359702277 0.0014191114829550427
11740 -0.001566060072408564 -0.0010756002822821463 0.0013841481325994188
11718 0.0016183938135249636 0.0007751976520697511 -0.0005795152251957312
11254 -0.0005674829304025117 0.0004061016320089271 0.0009723550070738884
11839 -0.0017085668821499218 -0.0015250171404760978 0.0017245810651233754
11840 0.0022843450507445276 -0.0006517351876832035 0.0008393489292118603
11815 -0.00030793510543414575 0.0020680483078795815 0.001076367918869382
11816 0.0004207038564771441 0.0007106831660281248 -0.0016939974648598384
11844 -0.00046424621380815155 0.0008801613442465402 0.0001914466053155835
11414 -0.0017965077948927308 0.0013629647266114274 -0.00027456698982070637
11850 0.000336221607323676 0.000983149134321429 0.001049010619472598
10953 -0.0013926006810153176 -0.0024919725245871934 -0.0003651378740708715
11635 -0.00454639629954237 0.000981155084808162 -0.0002223840389718929
11613 0.0006333677673877483 0.0003294995636542187 8.133739704338475e-05
11767 -0.0013799626931253074 -0.0017841784799647728 0.000963373266965251
11710 0.00044661330551119837 -0.000979720723464221 -0.0008191104534519027
11462 0.0007439006904624055 0.001322267070775942 0.0003139656961218838
11693 0.00040750575578584787 -0.0033504068355320674 -0.0013188903169121407
11787 -0.0019183512294912075 -0.000829344098792533 0.001618766227232637
11726 0.0005447799640439788 0.0008510258517848574 0.0022929517229496863
11853 0.0011306046680822635 -0.000651341129996993 -0.002197387883195158
11736 -0.00091400586720344 0.0013325325589706066 -0.0004443166991263062
11621 0.0015567881259993244 -0.00197248807517646 -0.0014953121414113012
11827 0.0014271185482297361 0.0006525903545586765 -0.00043326478089119566
11837 -0.0009129147196208257 0.00024550620669724584 -0.0008616709638751274
11642 0.0007258846631763308 0.0032944548939647907 0.003877220387293811
11841 -0.0008717232974965497 0.0013462440800013477 0.0009174378085553532
11782 -0.0010150714400770497 0.001963806855064452 -0.00032350209483510123
11854 -0.0008193569782769819 -2.8090126634426988e-05 0.0015727629307371609
11676 0.002773477871857413 8.234944742468532e-05 -0.0023419415631205985
11744 -0.00026394244816438985 -0.0007757666895857133 0.000562572176541997
11804 0.0009181085220714875 -0.0003054170901273169 0.0020264267456666604
11681 0.0006644831080515601 0.00014768090360424264 0.0005099438331144854
11569 -0.0026338366370719348 -0.0012077829313030112 -8.259194442227673e-05
11657 0.0020477670591073924 -0.0001086515803089954 0.0019091575085151548
11425 -0.0017737127315544709 -0.0018256914283192702 -0.00042165519951635716
11836 0.0004361272017857009 0.0012650613930680838 -0.0007032627368258934
11798 0.0015105055353524899 0.0005178718452936781 0.0010074856965877834
11742 0.003558285928802185 0.00022913025941473448 -0.0005130515639937608
11855 0.0014287977139752182 -0.0030387541501533497 0.0011529964845801116
11802 0.001797459525811081 0.0001625732955755599 0.0005071058917293441
11862 -0.0015660091658120517 -7.451879131404327e-05 0.0014395392202344588
11720 0.0018840580131157583 -0.002053576984132975 -0.0017662999765126906
11677 0.0011710318887230833 0.0001864885380286251 -0.0006282580634469201
11813 0.0009922016933895054 -0.0007724227099518494 -0.0013668970739203242
11832 0.0005569741841628406 0.0004312003207945698 -5.6491661751205535e-05
11823 0.0010902845067803427 0.0017511074623384995 0.0020096705066487454
11773 -0.0006625415996790697 0.0017659959053163597 -6.392023295498382e-05
11819 0.0005659074118284745 -0.0006358150793190974 0.0008152115265145009
11573 0.0033852004800366863 -0.0015207284465199125 -0.0004492795041866046
11751 0.0015580592222916208 0.00017563619546363972 -0.0006815369586123058
11605 -0.002162529899585285 -0.0006560675666725216 0.0006106046432270237
11702 0.0012530329791225283 -0.00013506083308027482 0.0005909288129080031
11646 0.001673779125891415 0.0022580934560415193 -0.0016072106000862556
11768 -0.001287886836952821 0.0012868151849870539 -0.0015208083027016949
11795 -0.000469092152579664 -0.0016158086289764014 0.0018625390648436874
11789 0.0006344501135801975 -0.0014730120335833864 0.0028077788509803313
11772 0.0010508904777770205 0.001597341470792103 -0.00233972725878445
11851 0.0011073956371403751 0.001639808523535621 -1.1660126081828627e-05
11770 0.0008829325740241023 0.0015252408642567102 0.0012690287312017135
11860 -0.00243395106598181 0.00039414159492126707 0.0018756749603653848
11861 0.0009528162175134018 -0.0011558310715284951 0.000678562552774751
11843 -0.002484217691944568 -0.0004100423038805294 0.00044057947620156345
11799 0.00015388473845678093 0.00200884704452617 0.0008108941196623557
11606 -0.0008802472073036815 -0.0021161763937800043 -0.0011976088288445314
11433 0.0003402324437859958 -0.0016618256165005466 -0.0011131970459121582
11259 -0.0001485561954378526 -0.0013615372978138434 0.0014071535180291482
11682 0.00014005843699008423 -0.0014118259820766427 0.0009401042152250199
11728 0.0012372303234941208 -0.003584894619308922 0.0035128352269719917
11722 0.002623432445042618 0.0014719988144155473 -7.664482552648557e-05
11776 -0.0004558040176534541 -0.0011011723917133526 -0.0010193823096500284
11857 0.0008234432931333279 0.0006249721289602831 1.581340408153376e-05
11757 -0.0002406081901178417 -6.002198135254659e-06 -0.0013515989595269842
11808 0.00084260991634144 -0.003645882052237222 0.001516250278952618
11664 0.0023347919301289683 0.0008291931989192068 -9.722655961005013e-06
11818 0.00357588509957832 -0.0004685864733320554 0.0002445826790418202
11792 0.0029346584313782757 0.00032785746999070643 0.00047650715597209574
11826 0.0035655509820845073 5.246407240457877e-05 0.0033173601120317048
11633 0.000583730236012559 0.0009763810681916313 0.00419239299692813
11651 0.003686389893873738 0.0002610719926998297 -0.0015485564043934855
11282 0.002197060670001862 -0.00034965362915526246 0.0012068410599825146
11828 -0.0006674481276860295 -0.00043913556653033187 -0.00453513378614051
