LAMMPS data file via write_data, version 22 Dec 2022, timestep = 0

75 atoms
1 atom types

0 22.5 xlo xhi
0 22.5 ylo yhi
0 22.5 zlo zhi

Masses

1 28

Pair Coeffs # lj/cut

1 0.1892 3.75

Atoms # atomic

190362 1 10.731922407975379 2.4199108422826505 10.441526244600084 0 0 0
190398 1 4.638362139760677 6.952482957836466 2.3810723574743844 1 0 0
190520 1 5.927075603244397 8.359663728559227 9.368285895031075 0 0 0
190340 1 7.554784224161312 10.258455479172266 1.8612384483503317 0 0 1
190348 1 9.247786421444163 5.5463852121245045 11.09626017655071 0 0 0
190780 1 1.8766487454421055 5.835464645566173 7.15429803061034 1 0 0
190873 1 9.818452184469644 8.725864381401742 5.6026582189848 0 0 0
190742 1 0.6444664817044892 10.04815800723069 3.891627526093102 1 0 0
190948 1 2.287173693900543 0.028273386428256053 5.190805699765126 0 1 0
190497 1 22.49393884860628 5.630228525786767 1.750832898193418 -1 0 0
190851 1 20.772389543602433 3.0510593259479197 4.6540912066838205 0 0 0
190579 1 12.33418823305248 8.20163291283028 8.844365938494152 0 0 0
190770 1 12.03529270274345 7.664455009235281 0.4953402173683692 0 0 0
190772 1 18.49726601783059 5.0499616787070245 2.70593402893559 0 0 0
190785 1 20.57104843508966 6.61104855202653 6.8930139098749565 0 0 0
190768 1 18.108662468198993 9.290103020514412 3.2614657856810196 0 0 0
190814 1 16.008284991610925 6.7458540048663735 7.068259789174542 0 0 0
190866 1 12.523223955893528 4.825026702519985 4.223789253376327 0 0 0
190903 1 18.064429248014658 3.862371382472279 7.875825211580761 0 0 0
190720 1 13.700221130950474 10.616547884706662 2.8202982648835966 0 0 0
190955 1 18.504912759878167 9.068755272342244 9.569862256091954 0 0 0
190932 1 3.636535804782312 11.757270976322364 0.9532990499647837 0 0 1
190968 1 3.81153841284641 20.026104709611324 9.241854437506689 0 0 0
190540 1 3.845387289927058 11.424181804025627 5.723580258769722 0 0 1
190642 1 10.663444478606545 15.011351940227367 2.7920594014190403 0 0 0
190951 1 8.749919203924904 13.392060365943268 10.858570408475849 0 0 0
190595 1 10.144172685055151 12.610317721781461 7.109949981146475 0 0 0
190973 1 3.7046031787547298 14.265625330743203 8.364933801053526 0 0 0
190962 1 0.5107573373293307 17.798568494058483 7.540679640854096 0 0 0
190945 1 22.27259085293514 16.43446528093632 0.05797669666725114 -1 0 0
190970 1 17.92533362094562 19.08216723291304 4.984683569513579 0 0 0
190972 1 11.31840698645376 21.96622132834337 0.7818654669829949 0 0 0
190806 1 17.639860194707218 11.630292444317739 6.325111648219224 0 0 0
190821 1 21.95048506648768 12.802512458433636 6.826888894115996 0 0 0
190799 1 22.247694443793836 12.500516842818127 1.1865772442829754 0 0 1
190940 1 18.973404197941264 15.504354798702689 4.691101796082734 0 0 0
190888 1 17.637236202898073 13.528862108024235 10.08544956337915 0 0 0
190975 1 3.488815473853059 1.5216690483603947 14.69169579315544 0 0 0
190974 1 7.557391145758978 1.0729867711537455 11.688662781002307 0 0 0
190901 1 3.402837012616373 4.981671043430302 19.445226933083138 0 0 0
190535 1 2.7641376516614775 9.861511474410785 20.423350421908925 0 0 0
190553 1 7.213745098194917 8.413865362021074 20.335139488258946 0 0 0
190578 1 2.4253604474595556 5.033040452763924 15.310889603249217 0 0 0
190950 1 4.5594515593533655 11.202358051995912 16.531779895318568 0 0 0
190942 1 3.0535528455178964 8.562674619286636 13.872326350478605 0 0 0
190966 1 16.72621971262909 8.574710157036183 14.65360930708871 0 0 0
190882 1 18.287998123927036 5.884468841778331 11.767823768438685 0 0 0
190917 1 14.138321734563597 0.7733928103807384 12.412964069011135 0 1 0
190971 1 15.815461502091708 0.4614656553424257 16.353269340169273 0 1 0
190894 1 14.742238656963332 10.305107582735415 11.443143034094549 0 0 0
190911 1 11.441935005570729 7.601638627285901 14.240408794135043 0 0 0
190764 1 11.980146915176949 8.829203379028113 19.421191325374505 0 0 -1
190881 1 21.16889877136279 7.181650294541218 17.496500354258572 0 0 0
190860 1 15.872188054664147 6.8646347403361645 22.41608082988117 0 0 0
190841 1 19.48142055467769 7.735262467868284 21.056297462226965 0 0 0
190876 1 14.909830984850334 6.029362379586958 17.99351371801156 0 0 0
190849 1 13.699059411044722 10.091521428707765 16.200652291393205 0 0 0
190896 1 14.827514609707297 5.038045350479916 13.928205515923075 0 0 0
190696 1 16.780643074903935 10.268159910462874 18.96361514947545 0 0 0
190809 1 22.45122911033743 5.307657441267583 11.798615384287485 -1 0 0
190905 1 21.112337899679474 1.063079912943336 21.184096838666164 -1 0 0
190924 1 17.30974700618989 2.417933033508217 19.20049417261056 0 0 0
190947 1 4.505178746769751 11.5391969592493 11.783294103007433 0 0 0
190960 1 4.85780194255421 21.077248508612275 17.81568424651198 0 -1 0
189830 1 10.468502154559118 11.615711675312246 22.26612697274708 0 0 0
190946 1 5.854111881858721 13.058398399529235 20.00190088781617 0 0 0
190680 1 9.484371020684199 11.323744639206557 16.17615114463314 0 0 0
190958 1 6.174417517229176 14.435212070790687 15.109273779024031 0 0 0
190931 1 2.357918199551258 15.03117985792047 16.039872069396022 0 0 0
190938 1 18.656789250046376 19.15692552954747 13.447375104272453 0 0 0
190922 1 15.325629863573994 15.861117088171241 12.794900894069531 0 0 0
190886 1 18.69099566279491 12.564104594087276 13.905912824862595 0 0 0
190936 1 13.25978409138498 19.191223907373487 16.400211226148627 0 0 0
190965 1 18.020504641356183 20.621507273345024 22.172743109833796 0 0 -1
190802 1 14.367184398633984 11.768187841292564 21.43304860402506 0 0 0

Velocities

190362 0.0009004011535285253 -0.0014013097499431012 0.002512029878212629
190398 -0.0017006702206969996 0.001105919796118153 0.0029215563192681476
190520 0.000988067041765178 -0.0019034268565866425 -0.0003787196092664548
190340 0.0022457388916107645 -0.0024615405084518435 -0.0016122425237179976
190348 8.910560503862559e-05 -1.9834101230623385e-05 0.00020928022734374073
190780 0.0036582831885216887 0.0002726466136317252 0.0005187842101353589
190873 -0.0019594900709407497 0.0012075455942197684 -0.0005384707425090982
190742 -9.244244310963998e-05 0.0023821515851849056 -0.0011260667521305007
190948 0.0017949246601973979 8.460047304288966e-05 -0.0007585657692670512
190497 -0.0010333448739162127 0.0020708312856800664 0.002968437459689619
190851 0.0005462868529302893 -0.0006408636047782111 0.0008594401165492583
190579 0.0013906549991166855 -0.0026557402864504868 0.001171130794428223
190770 0.001842982885056462 0.0005253650422708698 0.002227492695554737
190772 -0.0019471443485206896 -0.0005163107238809009 -0.0005790914572885481
190785 0.002633473658202921 -0.0008174031439698838 -0.0007265634827840479
190768 0.0007008570029790985 0.0007494062283626858 0.00022991829982820362
190814 -8.155952024582873e-05 -0.0014475234525217848 -0.0029239713936396808
190866 0.0012103763228169923 -0.001583807488382339 -0.0027584552105084916
190903 0.002375059319516789 0.0032738302719626773 0.0013713022817419733
190720 -0.00048276395910448516 0.00016330737666732048 -2.3910990329745665e-05
190955 0.002311543823027612 0.0010361725460382443 -0.0015265343660436873
190932 -0.0005457813431689063 -0.0009338979841038263 0.00041836901129412685
190968 -0.00017501467957690877 -0.000300642801614026 0.0013817881696211631
190540 -0.0006452030899883912 -0.002534911756116694 0.00020056932027312903
190642 -0.002722676927817376 -0.0007777441163735675 -0.0009303548833314566
190951 -0.0014564654170590371 0.0023912205840394708 -0.0017282833309354593
190595 0.002831926930915376 0.00042595054760493517 0.0025013086367016747
190973 -0.0011955355550786503 -0.0004189525036741821 -0.00012813726662868748
190962 -0.001788709660800956 -0.002438580340334402 0.0008489284721344173
190945 0.0011676962988687476 -0.004710505173933332 -0.0005619215921859003
190970 7.086420576857742e-05 -0.002110965685694947 -0.004008864395571028
190972 0.0006932741644321271 -0.0010351332533044969 -0.00022095207828372947
190806 -0.00271719796002553 -0.0017386399345075687 0.0028487908857507366
190821 -0.002748774652861205 0.0003679192339935145 0.0006096846592805741
190799 -0.001545602013483109 0.003656723047857354 -0.0027210007905894736
190940 -0.002110511050464484 0.002687016944631078 -0.0016933108893904599
190888 0.0002602997296496658 -0.002078428647195562 0.00038452421408153166
190975 -0.0005109947362211356 0.00074734687943263 -0.00017876841358055229
190974 -1.4870388643673165e-05 -0.0010400545931670265 -0.0011449551401104495
190901 0.0004024128312551283 -0.0007161566262689135 -0.002122978006619863
190535 0.0001671519433727613 -0.0050537290926696505 0.0017674003004789355
190553 0.0024791297357114727 0.0010023574590575072 0.000518221622686189
190578 -0.0013960275008074897 -0.001072423341723053 0.0017876589363596165
190950 0.00010232970021823993 0.0017003223984579715 -6.0255183353577274e-05
190942 -0.0007626754856497437 0.0011063208104313065 -0.0012804889564958513
190966 0.0011188071051787477 -0.001208604824701366 -0.001122107174433066
190882 0.0004130083040505281 0.0012069949159318424 -0.0011535340339502262
190917 -0.00029115770609573457 0.0011194511596493747 -0.002245738916397227
190971 0.0017668622648257172 0.00029201036716331916 -0.0010814675834070761
190894 -0.001835035813428672 -0.0001365860453734691 0.002731565893834166
190911 -0.0012899696548917127 0.003163009222806627 0.0026296668843008176
190764 0.0011804223215159354 0.002064798044940129 -0.00029941310896100374
190881 -0.00041375943436645533 0.003156313197567991 -0.0010224425353850299
190860 -0.003325464796400547 0.001052715735843038 0.0034595382678355444
190841 -0.0008089087909358964 -0.0004710467305247027 -0.00041681078176800617
190876 0.0011871847999899556 -0.0016816062592565205 -0.0013925282293713616
190849 0.0008496292939269416 -0.002462680210550638 -0.004837756511930979
190896 -0.0016851034777202053 0.0001949025188119112 0.0017789462651034034
190696 0.0015832142146659305 -0.0015607993840579765 0.001227502875169665
190809 0.0005834479435869034 0.0007011188071858721 0.002772119658094867
190905 -0.000923781495978328 0.0004278802096412184 -0.000543657147247478
190924 0.0008481891385250873 0.0024162484899365477 -0.0005244932863402172
190947 0.0004278052867113217 -0.0021768163249168398 -0.001965306100431255
190960 0.00011144946190679166 0.000990835691714173 -0.0007897982363314274
189830 0.00016475247217944636 0.0002472156729051955 -0.000752653468377579
190946 -0.0008029902275900396 -0.0008850238675353201 0.0012343657821936348
190680 -0.0021507482451923435 0.0026344989542179393 0.002490082189746415
190958 0.0031639863672617077 0.0009797041900265991 0.0010112649695580935
190931 0.002575284294440818 0.0008336339592384727 -0.0005669507167901227
190938 -0.0020150439959867174 -0.0006039217824609051 0.001589324180189762
190922 -0.0009265866330103781 -0.0014272253700000068 -0.000551702937752845
190886 0.0024610768127727627 -0.0013444235583115643 -3.140096103536527e-05
190936 -0.003182660765328669 0.0017744818620755384 0.00027543607263429983
190965 0.00038026321119009437 0.0014522161873382477 -0.0009165640210292551
190802 0.0009152734574978522 -0.0012344027855260677 -0.003577322817375859
