LAMMPS data file via write_data, version 22 Dec 2022, timestep = 10000

70 atoms
1 atom types

0 22.5 xlo xhi
0 22.5 ylo yhi
0 22.5 zlo zhi

Masses

1 28

Pair Coeffs # lj/cut

1 95.21 3.75

Atoms # atomic

23 1 6.981516098827829 9.341072999332598 5.4138997830049576 0 0 0
25 1 0.8228001291038467 8.301769848354983 10.345841302231815 0 0 0
34 1 10.772797442168365 5.406610523772711 9.903073047941119 0 0 0
38 1 2.857086170863865 8.547273708995096 6.529227080535715 0 0 0
41 1 10.67404119119702 9.11030044830884 7.319634726652704 0 0 0
42 1 7.278792479670976 11.165205830086586 9.114386265219371 0 0 0
43 1 6.223167432343198 7.775035392155424 1.5198359561710753 0 0 0
52 1 3.846602164370288 10.842576571434078 3.1844360924719077 0 0 0
58 1 10.141008502170912 7.929895986537399 3.261845734092335 0 0 0
8 1 0.5445486007000081 4.228331965034982 9.075336342945388 0 1 0
79 1 1.01287307730544 8.357810272536152 1.217250515109507 0 0 1
9 1 19.481151951235315 3.2208444120925126 7.232034038860369 -1 1 0
60 1 14.221971072592758 4.16781706650174 8.00143669475868 0 0 0
64 1 19.837909434380887 7.243863639768151 3.116193583289251 0 0 0
73 1 19.103831194622362 8.59088801806368 10.054919596321382 0 0 0
80 1 21.418911268198354 7.14168460976411 6.793236305375225 0 0 0
89 1 17.266329881626326 6.706320493810959 6.628539480794471 0 0 0
6 1 22.315081084759477 10.567791552547266 4.372623661939346 -1 0 0
20 1 11.756188067028388 1.2528425460927428 10.02467218065852 0 1 0
31 1 19.903178814055014 10.726327822649077 0.8917152629660999 0 0 0
78 1 15.795447833275164 1.0917338557037222 10.270912812450396 0 1 0
47 1 17.437902141333513 4.821289392337802 10.410817021462513 0 0 0
30 1 20.021042964431015 1.6691031920114077 11.117348135736467 0 0 0
45 1 7.803683088535294 11.50166901270937 2.051096606324936 0 0 0
14 1 3.260068706125053 19.47474384376535 1.0197821641432974 0 -1 0
5 1 8.535533745556855 15.215661574022684 9.624074599297757 0 0 0
27 1 9.931371362382256 19.5584875585318 2.500396243995241 0 0 0
35 1 9.208058458384155 12.838510062470336 5.838619938976419 0 0 0
36 1 5.951195830922199 19.74833030940421 4.1875101566256525 0 0 0
54 1 5.9424105449311515 14.594028657811707 3.839651841362776 0 0 0
61 1 9.804205682503161 15.284905830530878 2.412293732358279 0 0 0
81 1 8.645243353045196 17.105034630561736 5.817035850983598 1 0 0
13 1 6.831648865403445 17.522480835682927 0.8354053231121009 0 0 1
75 1 11.189983975230708 12.060671702521233 10.209304274390126 0 0 0
69 1 1.028782610096407 12.749327890225377 0.9538510178466524 1 0 0
1 1 6.8943371953881964 21.625242889451446 0.45724301038181503 0 -1 0
16 1 11.721641311525204 11.625522804039305 2.6617674886536626 0 0 0
50 1 13.735376034041577 19.96500413676956 0.3245266861396504 0 0 0
62 1 13.364527478518207 14.613331455557297 0.26177355147049275 0 0 0
39 1 10.69048846056242 0.039556672582197305 21.82899608897464 0 0 0
19 1 10.069985858662976 9.252326548682678 21.852303709766048 0 0 0
33 1 10.06997666720765 2.597845759055507 13.493672445879163 0 0 0
32 1 11.270144710675881 1.322152329525982 17.4142023431669 0 0 0
17 1 16.906751974209573 6.280430540107391 14.196087584922127 0 0 0
71 1 19.929856065628055 9.090895010666406 14.17244427030554 -1 0 0
74 1 18.07863942374412 2.1927948674153517 18.80333664980873 0 0 -1
51 1 14.397911347168456 1.1960118602477054 20.37133518321036 0 1 0
11 1 20.098268684744035 4.60178449289025 16.19197200643457 0 0 0
49 1 20.897132429246383 5.604738344021484 12.337347969104234 0 0 0
53 1 13.855898314088535 4.082964886018524 12.390839313338903 0 0 0
59 1 17.318302583796108 2.211525861272367 14.11515040468199 0 0 0
66 1 13.45626203923312 0.3960933910664606 14.141623654003082 0 0 0
77 1 14.63640491647478 3.5574311916983836 16.74603887472583 0 0 0
18 1 7.190187994712121 15.989627126599489 19.66311675760109 0 0 0
57 1 9.74047908640489 13.23200520697609 21.3115136471165 0 0 0
76 1 10.251152853831254 16.626014341891747 13.42304417464092 0 0 0
12 1 9.059154161978121 13.204000366248192 17.134155533338973 0 0 0
29 1 8.304178615242323 12.829986377772869 13.081051228605693 0 0 0
86 1 10.544622982174449 16.978461405950817 17.50084981531876 0 0 0
56 1 10.00782791315943 20.563736470445868 15.218858783700902 0 0 0
68 1 8.417537266815797 20.048843373101604 19.41057171854683 0 0 0
65 1 10.726421090879672 17.459274414674972 21.525087442260748 0 0 0
88 1 12.79747856631758 13.722264099503988 18.592720363565117 0 0 0
22 1 12.403186378489798 19.85346327808381 11.657314754630114 0 0 0
40 1 12.242382361433647 13.220348615301935 14.39917737962639 0 0 0
46 1 14.767428263215084 17.1668198558813 19.74131779709893 0 0 0
21 1 15.88095736661039 21.75046062085333 16.991654681969273 0 0 0
83 1 12.503496748629722 20.26985421975602 18.939871439449426 0 0 0
3 1 13.60749102970934 18.601736324886673 15.38241237023958 0 0 0
2 1 16.60874031116662 20.598409777320178 12.973127420280658 0 0 0

Velocities

23 0 0 0
25 0 0 0
34 0 0 0
38 0 0 0
41 0 0 0
42 0 0 0
43 0 0 0
52 0 0 0
58 0 0 0
8 0 0 0
79 0 0 0
9 0 0 0
60 0 0 0
64 0 0 0
73 0 0 0
80 0 0 0
89 0 0 0
6 0 0 0
20 0 0 0
31 0 0 0
78 0 0 0
47 0 0 0
30 0 0 0
45 0 0 0
14 0 0 0
5 0 0 0
27 0 0 0
35 0 0 0
36 0 0 0
54 0 0 0
61 0 0 0
81 0 0 0
13 0 0 0
75 0 0 0
69 0 0 0
1 0 0 0
16 0 0 0
50 0 0 0
62 0 0 0
39 0 0 0
19 0 0 0
33 0 0 0
32 0 0 0
17 0 0 0
71 0 0 0
74 0 0 0
51 0 0 0
11 0 0 0
49 0 0 0
53 0 0 0
59 0 0 0
66 0 0 0
77 0 0 0
18 0 0 0
57 0 0 0
76 0 0 0
12 0 0 0
29 0 0 0
86 0 0 0
56 0 0 0
68 0 0 0
65 0 0 0
88 0 0 0
22 0 0 0
40 0 0 0
46 0 0 0
21 0 0 0
83 0 0 0
3 0 0 0
2 0 0 0
