LAMMPS data file via write_data, version 22 Dec 2022, timestep = 10000

52 atoms
1 atom types

0 22.5 xlo xhi
0 22.5 ylo yhi
0 22.5 zlo zhi

Masses

1 28

Pair Coeffs # lj/cut

1 95.21 3.75

Atoms # atomic

401 1 3.971085901125841 9.040740221990603 8.720910996301523 0 0 0
362 1 0.24667103320671824 10.800055105146056 9.526152189600342 0 0 0
227 1 0.5198801986500192 6.626498710655829 10.063829992694695 1 0 0
506 1 8.485457751427527 8.088428242406074 9.213470118918213 0 0 0
454 1 15.733829109805553 6.9658485019886145 10.015772922670374 0 0 0
456 1 19.334630682056122 8.637873317412039 9.236845744185548 0 0 0
459 1 15.980371013507423 11.095624019203555 9.652890753770663 0 0 0
509 1 12.569657828691255 9.23912681394216 8.504361925881526 0 0 0
515 1 16.315764793807535 9.058889523175957 6.25621601834717 0 0 0
510 1 11.883592840229902 6.044865743976491 11.058559012859389 0 0 0
523 1 22.270404938035835 8.695793568247831 6.2025015413307125 -1 0 0
405 1 3.471542254542719 12.710672099474165 10.765975862865323 0 0 0
406 1 2.8541243087286654 12.767256802770891 6.785084170422083 0 0 0
500 1 5.056582775458964 15.986707138822752 9.086882193846112 0 0 0
502 1 6.8359722657296675 12.185870118525747 8.419082062281241 0 0 0
503 1 9.9541510350323 11.416445787957146 11.204358195748343 0 0 0
512 1 10.819899447644083 12.55001655409579 7.12822468794334 0 0 0
513 1 9.31079635364506 15.554315712561047 9.384181013509714 0 0 0
476 1 0.06722502949051545 14.851070647291408 9.94436902666667 1 0 0
471 1 19.201328859292587 12.234138130552191 7.159560190820859 0 0 0
496 1 17.002327647061243 15.120764158256705 9.683207820487777 0 0 0
511 1 13.068502998477088 13.82989540432109 10.552060424607273 0 0 0
514 1 14.93733066317501 13.216455982400317 6.475696202123396 0 0 0
498 1 5.1915364650504365 6.15336810269084 11.657701924982343 0 0 0
383 1 2.568701901039433 9.172850769792124 12.602887896635963 0 0 0
478 1 0.8096300213642551 5.951769069047537 14.382743481957696 0 0 0
480 1 0.8286943427886306 9.86581924854119 16.324110231513178 0 0 0
497 1 6.265876421595865 10.085017761720822 11.89352124179412 0 0 0
499 1 5.361563015897551 8.289608190203834 15.444852755844995 0 0 0
505 1 9.067218791491916 7.746228604692141 13.364159060811698 0 0 0
466 1 19.093509411250064 5.612674878962648 12.226690725296107 0 0 0
460 1 21.20914151622413 9.041463178136134 12.871634934037779 0 0 0
458 1 17.27623781784265 9.229004480982669 12.878311875685268 0 0 0
481 1 19.095495405884222 7.491286696163608 16.05550242171414 0 0 0
486 1 14.840716187302368 6.416959990708605 14.346563839514998 0 0 0
489 1 15.494396283521507 10.318337145875354 16.292410727260837 0 0 0
490 1 13.320412715114857 9.67650293520488 12.484831988571594 0 0 0
508 1 11.702260334138877 8.889435872151253 16.2487032461207 0 0 0
477 1 0.42974255742958833 12.683162719096588 13.415819856531852 0 0 0
494 1 3.2277595571837185 15.954877586781446 13.127601035930025 0 0 0
495 1 4.322408643468474 12.222070774632536 14.84350924908347 0 0 0
501 1 6.957548511660448 14.017835477142517 12.260864334302424 0 0 0
504 1 8.37781699485044 11.470232451320733 15.196809347577771 0 0 0
519 1 10.297290552545942 16.062316639610714 13.355761937264246 0 0 0
520 1 6.8278151628690855 18.08944234069876 12.257420124140298 0 0 0
521 1 6.586223884991474 15.664835051710178 15.882714092909689 0 0 0
522 1 1.621387521327188 14.660070946048979 16.81239024517703 0 0 0
483 1 19.429324763328477 11.66129726132439 15.423071078920307 0 0 0
507 1 12.190769919981605 12.770045130872187 14.648514568874855 0 0 0
488 1 16.041479598051605 13.147604453678998 13.28805298278483 0 0 0
491 1 19.913550240180275 15.538886709389695 13.568924712514937 0 0 0
472 1 19.481902949969257 12.342880133000595 11.28639534129127 0 0 0

Velocities

401 0.0014669608333778656 -0.0011181522971724287 -0.0037352669212921547
362 -0.0019444098878856194 -0.0010149946694812584 0.0007769390082190313
227 0.00030027558834804196 0.0017587787592603127 0.0006329767438487665
506 0.0023575581623587662 0.00190043305182568 0.002613320862198281
454 0.002671166643191998 -0.002115356331274495 -0.0028648570849813208
456 -0.001102666115919432 0.00019577310794179003 0.00036232677102320194
459 -0.0010533653779542375 0.0008964488140926001 0.00331169966809404
509 0.002254772853989476 0.00046603543385502125 0.0012880012170903283
515 0.0016818748624032685 0.001790646229725135 -0.0022354689763159664
510 0.00032468135574068144 -0.0005913985572355766 0.00010815954652787853
523 0.0006190051991288783 0.0050340030568045945 -0.0008380328385523098
405 -0.00010247349372369839 -0.0008705874337963599 0.0008174278833894455
406 0.0012886211387638266 0.0008784078770399136 0.0028900031683991227
500 -0.002210680409689424 0.0006184387743240672 0.00013974632306067432
502 -0.0011625927897802074 -0.002309397322287397 0.0007706116610281161
503 0.0011945309411941852 0.0016451016224105616 0.0019373157753150086
512 0.0011364159417137528 -0.0018180541963493176 -7.086020772414788e-05
513 -0.002030404270676973 0.0007182887815183898 0.001739456827189598
476 -0.0010327715516078471 -0.001543865807536706 0.0011874305314019892
471 -0.0012925659388781476 0.0010203432471666155 0.0008645026955649049
496 0.0019217749125279274 0.0021541081469970444 -0.0007878441911655135
511 -0.0019160868736434204 0.00024532180474388563 -0.0011278919135761924
514 -0.0010391377301521242 0.0019947461741368954 -0.001643548243683085
498 -0.00024452959580104116 0.0024024206348717673 -0.002040050484639184
383 0.0011475503620401852 0.0011472387293706093 0.0002408759590325983
478 0.0005078024518700855 0.0012263027828163368 0.0009225621938368716
480 -0.002492645684907561 0.0008797300396061005 -0.0020496472429024516
497 0.0013861415743653515 0.0024321631149163596 0.0007496655647842392
499 -0.002639666444962979 0.0023875906464490117 0.002597521133562873
505 -0.0010517532638868402 0.001565630974050296 -0.001236068752120375
466 -0.0015362484467768796 0.0004999594771899618 0.000717446706181729
460 0.00224686048766633 -0.00042317926622410616 -0.0005946862763142364
458 0.00029046338661371253 -0.0005853788589333153 0.001915842072828455
481 -0.0004924659430029038 0.0008042062105947696 0.00037087332989261813
486 0.0018203745281809892 0.0023156636569208163 -0.0008386998457320348
489 0.0011370974434206918 0.0004357235594772094 0.0013288260936278687
490 0.0018682695459868734 -0.00419545759935486 0.001463116344839721
508 0.0018514675679084664 0.0001482450536528475 0.0009540637425707834
477 -0.0028783281744321635 0.0012289479786290027 0.00033981857180817495
494 -0.0004432687606886068 -0.0014303599571062098 0.0006918330447558078
495 -0.0022193762934252146 0.0024203300325459647 0.0006965147558723936
501 0.0018321965465467433 0.0017823902127278369 0.0013368283347591418
504 -0.0009402913734896746 0.0005218695036770517 -0.00036018922396101094
519 0.0009665816420878384 0.0011076635885820876 -0.000164950732802214
520 -0.0009073003289777255 -0.0019006842207716754 -0.0006165329261810169
521 -0.0003451463676641684 -0.000524753800377387 0.00012341269851999067
522 0.0033614635108302434 -0.0011304120415709792 9.209718119215543e-05
483 -0.00012547019319650537 -0.004269127898410883 -0.0016460838134628947
507 0.0003325474753568167 -0.00034903660973242606 -6.028524799972897e-05
488 -0.0017235311411523731 0.003061066351911052 -0.003862473009487572
491 -0.0008747764054816596 -0.001004644132148036 -0.006197368806461112
472 0.0025149630727915304 0.0008373919137333322 -0.0022023200849150587
