LAMMPS data file via write_data, version 22 Dec 2022, timestep = 0

54 atoms
1 atom types

0 22.5 xlo xhi
0 22.5 ylo yhi
0 22.5 zlo zhi

Masses

1 28

Pair Coeffs # lj/cut

1 0.1892 3.75

Atoms # atomic

332174 1 0.30126903243422376 7.42862812193513 6.952845363622935 0 0 0
332618 1 7.622806575904976 10.010121234930176 11.107595471482535 0 0 0
332471 1 7.5682805101705135 2.090534435860132 8.112263501208396 0 0 0
332518 1 5.9863398584939285 10.414001707413231 3.1266964942341193 0 0 0
332661 1 0.8824507791467248 3.850245119002762 1.0697150794182508 0 0 0
332605 1 4.384060206536229 6.899891254445487 3.972313465304817 0 0 0
332597 1 2.530442764531095 4.151543474128259 8.991169673619408 0 0 0
332630 1 1.5981725359327028 2.4858114209425684 5.032551781755198 0 0 0
332658 1 7.744688889824175 2.486171274905173 4.08061733123875 0 0 0
332591 1 21.56537046659057 11.181431987640186 5.327416268562624 0 0 0
332423 1 16.80309204468648 5.067995045598594 10.292731375569817 0 0 0
332617 1 20.10037185745331 1.449808217794542 4.426716472919434 0 1 0
332610 1 14.009167737331788 0.08216133531283554 8.385562602842956 0 1 0
332514 1 16.11975807888422 0.2740318070976273 4.152581889719041 0 1 0
332409 1 11.824592632392692 0.4283726240640382 4.158692644284429 0 1 0
332641 1 18.71808469887734 0.8495340313993067 8.11846572818163 0 0 0
332614 1 13.99272377905097 9.708554509658626 10.175643832504583 0 0 0
332524 1 20.91617062101892 4.5796274652609705 8.798808641172394 0 0 0
332655 1 5.4225812789157875 14.823554737644063 0.9844755837621519 0 0 0
332222 1 5.815028288315531 16.680441719098237 10.183972883822385 0 0 0
332550 1 6.67101658888674 19.275809419469823 4.028913029250184 0 -1 0
332403 1 9.775488342985273 14.632580553476037 10.281362271765879 0 0 0
332469 1 9.57224852781382 11.281006966848395 7.384091820979533 0 0 0
332653 1 3.6250756884110507 21.647095124538566 3.2277581196873255 0 -1 0
332645 1 2.6209813068252905 18.332823812650897 5.769819223680448 0 0 0
332609 1 6.048592302272372 14.190824291757687 6.683871571525872 0 0 0
332656 1 3.0478210621736115 17.72859195188088 1.4449352619447444 0 0 0
332602 1 21.92605602947346 13.223687360400186 9.513466245966718 -1 0 0
332412 1 14.57639059008862 13.39664761950106 10.956540954279033 0 0 0
332628 1 16.699433289095502 20.375289827992813 10.496139075139599 0 0 0
332589 1 13.91417059554447 17.965199315904268 7.104902403012339 0 0 0
332539 1 14.062212387361667 19.603594387464042 3.6108701080600105 0 0 0
332384 1 18.05715478167737 19.100415651500416 6.685854767535745 0 0 0
332631 1 11.142847896154436 3.3445906675628336 17.535349728556046 0 0 0
332649 1 6.54062300130754 2.250782975810945 12.909474454545173 0 0 0
332603 1 6.089380292729187 6.214579899429612 11.444369713517078 0 0 0
332650 1 3.266113743077085 0.5736798965715247 15.838021677610474 0 0 0
332519 1 8.483252853613 0.030710673672471933 21.154292413338215 0 1 0
332626 1 15.51239140658285 1.7623704379714908 12.65995098681187 0 1 0
332648 1 17.644690701805377 0.31662524296744843 16.02045855392723 0 1 0
332646 1 19.55629292342639 6.615164027370123 21.56180800966071 0 0 0
332637 1 12.125475113105718 9.360225967764961 17.31784022567693 0 0 0
332643 1 16.077870402288568 3.767851263875073 15.776191948343154 0 0 0
332582 1 19.322539465884923 7.920803128006311 11.4381724020644 0 0 0
332502 1 11.08605790468215 11.875203992880515 13.05350834273431 0 0 0
332639 1 10.036712462798096 19.02636224754451 19.57029448057072 0 0 0
332657 1 7.77626602690493 15.703114191164783 19.74021090648147 0 0 0
332579 1 5.1462563130288626 13.129853076129146 11.940650502657821 0 0 0
332659 1 19.871315143709683 21.193620328648763 21.17686359988379 -1 0 -1
332588 1 14.759833447290502 13.520748611549264 15.221914308481802 0 0 0
332513 1 17.067958770118643 18.183049383891298 22.01099506114191 0 0 0
332586 1 17.105420931757163 16.809600042556227 14.947915242494979 0 0 0
332592 1 17.538175935641945 14.622950334159174 18.926266213146167 0 0 0
332612 1 19.046035220867957 14.713957127981798 12.477449990099968 0 0 0

Velocities

332174 -0.0014656307336840437 -0.0018504615323162526 0.00033940581247388324
332618 0.002591680902804417 0.0017514866371052963 0.00015967749494978238
332471 0.0009165337965391346 0.0026304355311329935 -0.0008262077960553167
332518 -0.002612411899695895 -0.0012493468495005458 0.0007258840203399168
332661 0.0007849440305731347 0.001701330640905962 0.0040123204028890335
332605 0.002326279499818348 -0.0008327418844368657 -0.0008850954932571398
332597 -0.00037642622999287144 0.0007859041184773622 0.0006017562756294075
332630 -0.0013525220159792068 -0.001119974206840567 -0.00033453717720485397
332658 -0.0005724775226262518 0.0019056467522225462 0.002044889096033806
332591 -0.0006835377876374733 -0.00020898219130562786 -0.0009211590228360462
332423 -0.00035469746608455204 -0.002358094669614861 0.0023146294047403856
332617 2.753512097946776e-06 -0.0002751794369938339 0.0015254006232570834
332610 -0.0011522627332780733 3.9606524473454236e-05 0.0024748443511103885
332514 -0.0002919598032914466 0.0012912273314507959 0.0010330181417074504
332409 -0.001825036704264612 -0.0030364848357357153 0.002175753678303121
332641 -0.0002341464503720462 -0.0012281921992196168 -0.00041524227846968386
332614 0.0037131097605502387 -0.0010440961371873541 0.0010928064724160182
332524 -0.001797801292866931 -0.000994935403866039 0.0013292760612526374
332655 -0.00041150939110078257 0.002339636902134946 0.0006613340578758261
332222 -0.001362917790081526 -0.00223567803041195 -0.0005125493412449104
332550 0.0017754419595615836 -0.0015783395701311016 0.002733263158305266
332403 -0.0016094015839661865 -0.0015048812143096735 0.0008507796106575757
332469 -3.425565516726377e-05 -0.0034498045738734434 0.00013771691947217526
332653 -0.003209559198626356 -0.001395659644741947 -0.002063345785991215
332645 -0.00036611118101278914 -0.0022564667169699 0.003607521802422032
332609 0.0014588925372057949 0.0013045746432696459 -0.0019946490054605134
332656 -0.0008828696833879558 -0.0014300507579546602 -0.002459566806773025
332602 0.0003625064395608863 -0.002131946108749089 0.0011929169033047565
332412 0.002929232653721604 0.00043500215116463493 -0.002151698737025828
332628 0.0015010178578740447 0.0001734210601785829 0.0031155766787116083
332589 5.2641511141841045e-05 0.0010988227869190177 -0.0007362009117112417
332539 0.001619403899283898 -0.00025084643997921055 0.0009635488706848816
332384 0.0013971978020280269 -0.001299456880630313 0.0011485655392805612
332631 -0.0004500814358388853 -0.0018213331412384422 -0.0017043236041700716
332649 -0.0005276923192296921 0.0015360545461733806 -0.000976600826517162
332603 0.0017253460936163722 0.001380437720617424 -0.0014284786529861835
332650 -0.0025155416642009343 0.005266447821719591 -0.0021224934763131474
332519 0.001422179698443597 -0.0007057368848826936 0.0011797330430545492
332626 -0.0007675634363841416 -0.0035413521464023787 0.004125702383401366
332648 0.001974774855424221 -0.0019261497097722016 0.0027850292826456955
332646 0.0018104944398669844 -0.0028514619788650927 -7.564740727297148e-05
332637 -0.0026222325525183023 0.0022471177085462346 -0.00035397723984541144
332643 -0.0011324909333419407 0.0007665974637564167 0.00044515181881431314
332582 -0.003349748704715815 0.00020803969478827913 0.002336751814787155
332502 -0.0009301364087730838 -0.00012920093114736982 0.00337117063703852
332639 -0.0006749317028865019 0.001187248094697045 0.0006010110444354654
332657 0.00228050164679197 0.0005443846726789723 -0.001687927062466333
332579 0.0011169257151865555 0.0013140596797946863 0.000632216862683185
332659 0.00043552729121181557 -0.002589181182034887 0.0007860922700156683
332588 0.0007662238897312788 -0.0014153191091837436 0.0023504863937411397
332513 -0.00033380571265043075 0.0010148153282533957 0.0006945985277192785
332586 -0.0008292382245809666 -0.0011950617340345296 0.0029115078692615124
332592 -0.0011113726997879201 -0.00032097685583616273 0.002442375370456828
332612 0.00022557181361741513 0.0026882570049388188 0.0005309439708868661
