LAMMPS data file via write_data, version 22 Dec 2022, timestep = 10000

71 atoms
1 atom types

0 22.5 xlo xhi
0 22.5 ylo yhi
0 22.5 zlo zhi

Masses

1 28

Pair Coeffs # lj/cut

1 95.21 3.75

Atoms # atomic

1 1 8.687035821232502 3.011047454556004 3.1745687228043478 0 0 0
20 1 5.611001172154685 5.596700403651547 2.743684171579629 0 0 0
34 1 2.3132293207166876 7.945193285329818 1.8635465383359917 0 0 0
43 1 4.514516222064624 1.4741442401307376 2.4422438773057626 0 0 0
46 1 1.8909313457044448 4.383127254612339 3.719768269555535 1 0 0
55 1 0.7637656069191928 1.60855549090009 0.9921355578080447 1 0 0
764 1 0.9223301238018692 0.6023907380189713 4.881133884834655 0 0 0
780 1 8.971987485174072 7.193663320827147 4.3994331417602695 0 0 0
798 1 4.9317094436528714 3.2406194737370235 6.091495098123094 0 0 0
807 1 10.180702956710338 9.074593430652556 0.6917889775670083 0 0 0
810 1 6.295482766486463 9.67885633799194 2.5384726305671363 0 0 0
811 1 3.5687886770203656 7.631294681286111 5.669708375665223 0 0 0
815 1 8.59256654772562 2.7659676243858256 7.617863052579512 0 0 0
816 1 10.84623889641195 7.737131995725041 7.977452150768343 0 0 0
817 1 6.847558296913075 6.412296218058232 7.962536904710594 0 0 0
823 1 6.995758433824294 10.211997284885499 6.538367070508359 0 0 0
800 1 11.246097871449823 0.16692545715110496 6.016158338643682 0 0 0
784 1 11.641306947516885 4.44586691630346 5.685262312267561 0 0 0
82 1 11.57491551901908 5.605128153741888 1.8888799398620042 0 0 0
108 1 16.878408089922004 1.404767319050044 2.4243312740811747 0 0 0
112 1 14.566273460195514 7.858045506224986 0.6708231233855824 0 0 0
114 1 20.37205936497638 3.201747158170558 3.26448737260163 0 0 0
144 1 18.07858308268644 5.7458707111635565 0.849042525910326 0 0 0
163 1 21.239816457610488 7.095203059536962 4.077821637772868 0 0 0
51 1 22.113484501891538 5.334023290934983 0.42945074426451135 -1 0 1
382 1 15.205334317966058 5.053882055475317 3.5957063737305344 0 0 0
391 1 12.821051386334494 1.9106501238004538 2.796630714226809 0 0 0
766 1 17.31749423002707 8.62552406505008 3.682961296608187 0 0 0
783 1 15.052980936157047 1.9505939914149213 6.1332137105675475 0 0 0
787 1 13.029235853361554 8.366987447425252 4.45802887620313 0 0 0
789 1 18.29487603241339 4.981476771869453 6.180104809897069 0 0 0
790 1 19.032675645329373 0.6795710507685174 6.050650266488386 0 0 0
791 1 22.135923131898014 3.960077809849789 7.027750145424038 0 0 0
145 1 20.446662608509254 9.058461215141444 0.5576428822510359 0 0 1
809 1 14.758919927877802 6.167227842224402 7.598344265529114 0 0 0
814 1 12.505553997124345 2.846029668741872 9.220642544664736 0 0 0
552 1 10.036218369396515 21.722134447061535 1.9136517629556598 0 0 0
797 1 2.15145182779592 20.450869766041116 1.7681578529384725 0 0 0
803 1 7.169584918147687 22.213719308243014 4.980413640141678 0 0 0
805 1 6.270167249846351 20.70096816760532 0.6719929427709401 0 0 1
824 1 10.093996317402457 11.296106583111035 4.16334234721183 0 0 0
122 1 20.33043690274024 21.653024355253727 2.380338748628425 0 -1 0
806 1 14.326727707789614 20.812584820116218 3.6130716931601397 0 0 0
825 1 13.388415340747876 11.596631949579637 1.5931765849670283 0 0 0
25 1 3.470330404802378 4.343113513590355 22.208822913099457 0 0 0
17 1 8.216856598489393 5.70885081110003 22.15558215820024 0 0 0
332 1 1.5198189835156386 7.0976559473656415 19.80350737427524 0 0 0
341 1 0.5147834194427281 2.964930573927675 19.588156002381876 0 0 0
474 1 6.847772477589442 2.0120308457464127 21.702424459952116 0 0 0
582 1 5.3752380557708666 5.1260033408766645 18.738150114071612 0 0 0
625 1 9.154564735318795 3.7695065030220447 18.59579629152817 0 0 0
54 1 10.758196662533187 2.511307195299913 22.040031405650097 0 0 0
663 1 5.1788361958129485 8.199943028250676 21.44247580922323 0 0 0
793 1 3.407875898018423 0.17021799561112216 20.85385223610972 0 1 0
818 1 8.709390476909181 8.225745412626184 19.103150008294342 0 0 0
828 1 1.6758671415391688 10.799047848814656 21.597195027907006 0 0 0
92 1 14.799794659856607 3.6488482100650894 22.19186656395527 0 0 -1
359 1 19.962798277131668 5.750643751700711 19.56953483380822 0 0 0
32 1 12.015562053311411 6.051430004905641 20.38409244915659 0 0 0
24 1 19.63653545786466 2.251440331224095 21.95764688330594 0 0 0
283 1 16.024607593670794 6.579826824637048 19.649441674886944 0 0 0
487 1 17.092433715980704 2.53346448765763 18.937644061836256 0 0 0
636 1 13.04496674218445 2.256035894274725 18.69527507535895 0 0 0
821 1 12.691498911330244 10.022202727395204 20.161239331197574 0 0 0
826 1 16.953761101678836 10.362835916160993 21.183242917844673 0 0 0
827 1 20.795997133849184 9.823828603291803 19.087335525354057 0 0 0
615 1 9.594999591398512 21.658132634897775 20.23519472695664 0 -1 0
822 1 7.481142644994493 11.564434422442892 21.449337997683017 0 0 0
794 1 21.84693131262759 21.3745713319511 20.920376102170152 0 0 0
796 1 17.61639809613881 21.30280180475805 21.689932568552877 0 0 0
61 1 13.628468198994376 22.165020498756775 21.99952260544502 0 -1 0

Velocities

1 0 0 0
20 0.0023698789019622668 -0.0011117687095816829 -0.0017905438039310542
34 -0.000766729494694513 -0.002602321042637397 -0.0027978361330562676
43 0.0036150708737859257 -0.0006066079004474426 0.0021379055478421487
46 0.0005505080086375878 -0.0003131830004789661 0.0006286849053676322
55 0.0034727839218199837 2.5419489558052857e-05 -0.0010785333093858965
764 0.0004750627652545196 -0.00017974429149199912 0.0031247743915826013
780 0.0007573060768621857 0.0015843350145154998 -0.0012737860537310772
798 0.00024215099090767097 0.0024581228633999276 0.0008373662928688229
807 -0.0010219221440454231 0.0005372376540674772 -0.0007184881698244712
810 -0.0004410136783330181 0.002711883761249468 0.00016714680925044496
811 0.0029499662682362497 -0.005330919662742266 0.00213195951018803
815 -0.0029993040793313396 0.0028255248428764495 -0.0023612606279926505
816 -0.002260441322176612 -0.0012648756633341365 0.000756053245894281
817 -0.0021296978187064974 0.00036675187742603825 0.002006916125392108
823 0.0016881455103696554 6.86773621204276e-05 0.00038337638027937526
800 -0.0007983700130195587 -3.3450372760921156e-05 0.0014008763567611314
784 -0.00021109366316895395 -0.0030638604668334762 -0.0015214693664110583
82 -0.0020145704703957695 -0.0024223886255034517 0.00027262376684752206
108 0.00020729258133641407 2.6753346950951455e-05 -0.0013783750520074984
112 0.0006400441942895856 0.0008724279495030826 -0.002050385799532447
114 0.00018525592133884788 0.0012438550237911762 0.0002918518905620946
144 0.0005875624116040149 0.0006619941800679304 -0.0012685987164456965
163 -0.002879469769340746 0.0006237724752860835 -0.002947849502905429
51 -0.001111837111004678 0.003116501388179482 0.0004184647134536354
382 -0.0019018106430483705 -0.0024647615728444444 -0.00022904091915208947
391 -0.0013759008915953368 0.0006695733761331429 0.002055750780055185
766 -0.0010650180810960151 -0.002260834729817451 -0.0014413170369441046
783 -0.000874315217744631 0.0022028130318182946 0.001152339473115117
787 -0.0017235476561863663 0.0025115762887956755 0.00021267076991775944
789 0.001857528983902424 -0.0003189040885940717 -0.0016305241662409827
790 0.0006376738576281154 -0.0017661700705726003 -0.0003185923530787497
791 -4.150709020082749e-06 0.001552647972589004 0.0003656932773470607
145 -0.00014147743625666484 0.0012427498848255228 -6.707189631440892e-06
809 0.002209901007491227 -0.0009458578544356051 -0.001332659501965073
814 0.0007265166696846911 -0.000542746052398535 -0.0024545254554322504
552 0.0011195825957800252 0.00203617228839515 0.0020486968091803066
797 0.001277298868947674 0.0005210212407141248 0.0006855452148241259
803 -0.0012858398222850569 -0.0016703492762076113 -0.0009570204269162657
805 -0.0019400260908064408 0.0018007105429360074 -0.002131766205845636
824 0.0020421137738188735 -0.001136945995749491 -0.0005907030205641823
122 0.0005491286722819661 -0.001248358119374485 -0.0013431835930796142
806 0.0002091357867837485 -0.0018596320547942472 0.0033080171314108617
825 -0.0013194870636398512 -0.00214606019447659 -0.0016669741027957542
25 -0.0011366829395841483 -0.002016302478178021 0.0019559849737617926
17 0.0013366901185986818 0.0033320019400987764 0.0031312113901525588
332 -0.0008127710762361435 0.0009703613755839002 -0.0013167639780095764
341 0.0019275086967910056 0.0007783568444625948 0.0033682384725987574
474 -0.002194828474896468 0.0006854703131544573 -0.0017021135545285055
582 -0.001229312064588852 -0.0010659860265089716 -0.0005287659785107639
625 -0.001199614827196222 -0.0016547496253618333 0.002700895538661629
54 0.0016606522455876514 0.001555927622323098 0.0005225673975980253
663 -0.0002792872383807177 0.0004501467647248071 0.0016706411753640341
793 -0.0010491540230917072 0.0016314199241565092 0.0032138152101727014
818 -0.0005907213008615215 -8.415529803176739e-05 0.0003888929486289494
828 -0.002109278780373973 0.0013266052871444274 0.0015049695624008764
92 -0.0013778477146790362 -0.0004999463647092146 -0.0003451583978071241
359 0.0004890749914848723 -0.003448805306905315 -0.0007702709591821423
32 0.0007777541020479876 0.0036514861241331883 0.0028152672621336227
24 0.0006816186138749199 -0.0011081274811019428 0.0009746095335773577
283 0.0011163911436602753 0.0009759319800658713 0.00211898200529937
487 0.0019462421688208839 -4.814671207510604e-05 -0.00030451890515106954
636 0.00039845619594740684 0.00018069606341934168 0.0018948168826290778
821 0.0011615753855700383 -0.00039351544934700556 -0.0018933324158596277
826 -0.00047431991384687795 -0.00048685760049097546 0.0008730758506588302
827 0.0035979455570136223 0.0030034527154036757 -0.0005356806420554962
615 0.001544803578313035 0.0014575993845876076 0.00043899182024443315
822 0.00046721804499441806 0.0009194399384788807 0.0016039900405316687
794 0.0007604516774073543 0.0004295440831652513 0.0008218442550864138
796 -0.0008449126629824781 -0.00013989032962814758 -0.006324274062895857
61 -0.0034992198636029505 -0.0007008492998796495 0.002938980399799742
