LAMMPS data file via write_data, version 22 Dec 2022, timestep = 1

46 atoms
1 atom types

0 6 xlo xhi
0 6 ylo yhi
0 6 zlo zhi

Masses

1 1

Pair Coeffs # lj/cut

1 1 1

Atoms # atomic

1941 1 1.8767935353688867 1.2689489448764122 3.224916537862698 0 0 0
1971 1 5.151452427334828 0.46094621646262063 1.1230600872650092 0 0 0
2050 1 4.628163218790742 1.5392182159885848 3.640556120146325 0 0 0
2049 1 5.051066248235789 5.270434098909811 2.185900377196213 0 0 0
2009 1 2.2069491521487707 0.19440016438923785 3.2835628899203444 0 0 0
2041 1 4.625031974457685 2.912394710309987 0.6178961799563356 0 0 0
1998 1 2.4758223055283644 1.1454890152185637 4.233878778402637 0 0 0
2054 1 4.8115637138539755 5.951338743768324 4.150266514229712 0 0 0
2042 1 5.197996800391933 2.732224187223345 2.491914662761574 0 0 0
1982 1 0.030676731854061008 5.58383227120332 1.4689821142093196 0 0 0
2023 1 1.9899597614956832 1.253711457948066 5.128473733145964 0 0 0
2043 1 5.11489864583821 4.10154060279091 0.5929111068103979 0 0 0
1956 1 2.2706169822582125 2.2596208137737683 3.447017095725526 0 0 0
1953 1 0.6053842532473543 4.69314432828368 1.6767254637911568 0 0 0
2039 1 2.7831014677803507 5.586368984350175 2.103519973393306 0 0 0
2053 1 0.3093404175291492 3.084397412410191 5.467310378079913 0 0 0
2007 1 2.3969566907719506 1.6511018041759273 0.06802278480866122 0 0 0
2033 1 5.140548557574185 3.1996071493251286 3.7973587074304738 0 0 0
2014 1 2.4167866084802836 4.932528728122137 5.010333548770442 0 0 0
1840 1 2.529961381354351 5.060936422581289 3.158454323726918 0 0 0
2036 1 3.7391120520136845 5.256258193988473 3.9314663642698275 0 0 0
2005 1 4.424449340637983 3.720068102572145 3.184599930040818 0 0 0
1907 1 2.860464780060791 3.831558481711689 5.003402128351574 0 0 0
2055 1 1.2991783792614835 1.291020247755116 2.1773040202340597 0 0 0
1935 1 2.005842627028861 4.197032474073131 3.524791747110333 0 0 0
1984 1 1.3932447737982705 4.2649132275324835 4.3966151384621 0 0 0
1916 1 3.2656690214135073 4.099242896819135 3.975366839196238 0 0 0
1936 1 1.721965844613484 3.0799504188261695 2.7266892114312804 0 0 0
2040 1 3.2448469853237487 2.143282336249613 4.146225347251736 0 0 0
1912 1 3.2870913191172715 4.143800403989758 2.853389855871624 0 0 0
1970 1 1.6053531112174284 5.169740231321072 1.824067813262375 0 0 0
2037 1 0.5902004635847176 1.49919146834835 2.911008530720607 0 0 0
1930 1 2.4841569599156066 3.2260253016026805 3.8072440362569147 0 0 0
1972 1 1.1641267608684145 5.4784699154451815 0.6438688871655003 0 0 0
1947 1 2.162994507776105 5.448692192998106 4.169687719163339 0 0 0
2038 1 2.3487062232330005 0.7054938770390553 1.235591395402137 0 0 0
2029 1 0.13550269330642312 3.3937664010532975 3.0319025027714215 0 0 0
2031 1 5.662779047928182 2.3274585289542835 3.5954961346441396 0 0 0
1967 1 1.1827039752075001 5.705711312454991 3.890028431029072 0 0 0
2052 1 1.564069511165875 1.3162741648574705 0.6198887595068145 0 0 0
2051 1 4.77240511904117 1.8128357249371874 0.33002901930829 0 0 0
2056 1 4.8849708795943165 3.7055733416721104 5.571153483153858 0 0 0
2057 1 0.13381192373755013 4.977002257004847 2.476933480462494 0 0 0
2058 1 4.888610067259805 4.869400435532164 0.013119989080876108 0 0 0
2059 1 5.239842817764656 4.03823817057453 4.668932846127513 0 0 0
2060 1 5.073393906035178 2.5313787332416413 4.882369592265398 0 0 0

Velocities

1941 0.3166739793035763 0.25240280656351 -0.032623395367342586
1971 0.8424600308021201 0.45562197057301396 -0.2709217937995692
2050 0.8915855806222563 -0.6612048649680775 1.4282060637733012
2049 -0.15167051186143665 0.12419242133547029 -0.9861686759671897
2009 1.1876975382382877 -0.8983535644839236 0.05397296405762765
2041 -1.5022434932968296 -0.7615282280320516 -1.5505768624961085
1998 0.579268752154917 -0.07073110615300195 -1.0090110844148084
2054 -1.472526922166404 -0.08231360216041844 1.6355848620769395
2042 -0.8711288427704912 -0.05180897704664788 -0.5504571836985866
1982 0.2846767654896599 1.679493378792001 -1.4242488007298817
2023 0.22838019470086723 -0.4700672081080164 -1.0618584060558616
2043 -0.06708937867709582 0.15476089279948493 1.1282643528243177
1956 1.45966803931816 1.93961184843268 -0.07631687071648667
1953 -1.3721392043229625 1.1288359576274498 -0.018065321995544736
2039 -0.29509679453745713 -0.2689454084682546 0.8943528431357589
2053 -0.06659887532235119 -0.3338874510825425 -0.5933272105286955
2007 1.0976603319904121 -0.14658868496567182 -0.6544808008107463
2033 0.9424157148432205 0.440533635709785 1.040394389438103
2014 2.8010921199336574 -0.8114214435518944 0.9975612186396574
1840 -0.11275799573803767 -2.464079277631473 -0.6934669739429205
2036 0.24527319272870884 0.3481429339214943 -0.2452797817102382
2005 -0.6066449232847656 -0.9035287500501735 0.29133077773264276
1907 1.0559524828370566 -0.012678216583784919 -0.02412156383076002
2055 -0.37401120321332504 -1.0284154584590877 0.7796031711987323
1935 -0.7443711776966465 -0.28298522666738507 0.39645854124928975
1984 -1.2915306560388191 -0.6969565185747941 0.3498268619755883
1916 0.7200551362015505 -0.5368831376733033 0.43240110619670424
1936 -0.7222449201450101 1.5019850935420351 0.22935540277535896
2040 1.0833486620058719 0.25790492815912647 -0.1098584035095198
1912 0.07892826659836487 0.1120072317771793 -1.2450431401218172
1970 -0.8750903629313799 0.851080203991215 -0.12557534043624882
2037 0.27163949531554865 1.6435975745103446 -0.42955656229312256
1930 -0.3797754610974957 0.410304609483688 -0.3520630042435948
1972 -0.5585246603057459 -0.8043509005916109 0.3712432290361377
1947 -0.9453895601354654 -1.2057917975233334 1.9843363890008148
2038 -1.2509664932841902 -1.106735460876875 -0.1024741135011155
2029 0.6668161965814832 1.301427945175697 -0.05749854637564807
2031 1.231284948827096 0.0748655524100676 0.6326607267839528
1967 0.28167532152406227 -0.0011840023517776148 0.19725788522126234
2052 0.32897239625657204 -0.17240456984879604 0.9172152658746179
2051 -0.00472618407734128 -0.6954180362736689 0.6625721804340375
2056 -1.298964428214045 0.06536024772897903 -0.14189640591157718
2057 0.7426629806434157 -1.1485804413237917 -0.6853715288937322
2058 -0.6691488851530032 0.3351500823038784 2.0741427338819656
2059 0.19302834455533674 0.9749442937892852 -1.3878771023076961
2060 -0.5365669416209118 0.21352221544124406 -0.7959951911034203
