LAMMPS data file via write_data, version 22 Dec 2022, timestep = 1

71 atoms
1 atom types

0 6 xlo xhi
0 6 ylo yhi
0 6 zlo zhi

Masses

1 1

Pair Coeffs # lj/cut

1 1 1

Atoms # atomic

1371109 1 5.959950501080579 4.888071661297266 1.8204114231376032 0 0 0
1371167 1 3.3486615919268976 0.9553755153694077 0.99628681363365 0 0 0
1370803 1 4.4004879912363775 3.001668709796699 1.0460055531216812 0 0 0
1371056 1 1.005055787509799 1.9726206771901906 3.8357215355316745 0 0 0
1371189 1 3.062040082673561 1.7076694945374826 2.801194691472312 0 0 0
1370853 1 2.412274087971204 1.0905965320256523 5.655913755137433 0 0 0
1371158 1 1.588002946035938 1.5655140260073885 1.594235106182394 0 0 0
1371205 1 0.32404312506506366 4.19280296852477 4.439491995814951 0 0 0
1371151 1 2.3933080119981 0.3277576520702604 0.6228583448672939 0 0 0
1371173 1 4.8849708795943165 3.7055733416721104 5.571153483153858 0 0 0
1370896 1 2.4002113390714914 2.351975774556387 1.6568429691981723 0 0 0
1371075 1 1.5848017714846887 1.7633733431638094 3.0157785541451436 0 0 0
1370986 1 2.0093679325698726 3.4468427018480576 1.0852899603011505 0 0 0
1370996 1 1.912560759071522 2.408677715067136 0.6463571333542266 0 0 0
1371196 1 3.164667666500745 4.569470878024339 5.097046955068151 0 0 0
1371202 1 2.162710263469587 0.6713981333521186 4.188427249057417 0 0 0
1371177 1 1.139884835639915 0.04443260004950343 2.778709032004098 0 0 0
1371195 1 2.96146293308654 3.307516385478674 5.4278907400685785 0 0 0
1371069 1 5.352227856103436 2.893577530464892 2.3575545234408017 0 0 0
1371001 1 0.9708531689694399 3.1292108693761804 2.647081605460067 0 0 0
1371186 1 2.9200342031754714 3.014852770145448 0.6305078345492984 0 0 0
1371036 1 2.1924440675379913 2.4074431110208123 3.89636692679318 0 0 0
1371184 1 5.523451315017161 0.6462514934345388 1.548850154294097 0 0 0
1371165 1 3.295079697526563 0.40447632894128394 0.03366051615851955 0 0 0
1370726 1 3.1231780867665906 3.2541042860849316 1.7307362294433344 0 0 0
1371068 1 1.9504716824509538 3.5775669531792254 2.167782083231854 0 0 0
1371107 1 4.181922598826663 1.5731184797236315 3.402288715076767 0 0 0
1371198 1 5.782652386362968 1.0386576024064131 2.718323644585127 0 0 0
1371015 1 5.4157917897290515 3.212609976163418 0.3358693785666811 0 0 0
1371147 1 4.037383141013506 2.2984510140020635 2.0661923326860148 0 0 0
1371178 1 0.689417464979653 1.03933391302793 2.0850762604200637 0 0 0
1371139 1 5.837792649789617 3.7810650140890223 2.359691794197863 0 0 0
1371098 1 2.1356472997626508 1.8241671108753266 4.776632481616285 0 0 0
1370925 1 3.50144403963417 0.7699741314956798 4.955228047890229 0 0 0
1370980 1 4.897167526603289 4.694619621473653 2.4719781076870757 0 0 0
1371209 1 4.430729618496601 1.2726980723779175 0.236502455657582 0 0 0
1371207 1 2.540288419714332 4.627470138774938 1.8906223903832131 0 0 0
1371095 1 2.0165043911042178 3.3893012885885785 5.986757308238539 0 0 0
1371030 1 4.793849371743319 2.22639088995121 2.9516874099856647 0 0 0
1371050 1 5.015525036964345 1.9292962597353833 1.6822373725856827 0 0 0
1371192 1 5.634993069635236 3.328521359399204 4.458487422419008 0 0 0
1371201 1 1.4342954212028047 4.203144155537311 4.243822115586988 0 0 0
1371093 1 3.421389376475192 5.291250418541604 4.045784428737026 0 0 0
1371144 1 3.105501175441547 0.1582556460789664 1.8026436491881699 0 0 0
1371133 1 1.678856596201126 4.542812352321489 1.0472054672647293 0 0 0
1371206 1 1.061994282091965 4.937899119657418 5.270504082213391 0 0 0
1371191 1 2.068813328663266 0.5456148435108432 2.148674886742921 0 0 0
1371187 1 1.7584910242625007 4.958644779845441 5.942814862328961 0 0 0
1370997 1 2.57087899677962 2.76329887507637 2.764193408547059 0 0 0
1371027 1 4.140154547123311 1.5774735014780767 4.597139342034766 0 0 0
1371038 1 1.1721957703922856 3.0943129831432894 4.118307689259904 0 0 0
1371086 1 5.0716859647406665 3.8260093963826116 1.7399250025581217 0 0 0
1371058 1 4.87973101664322 5.639196722600235 1.9793167421497948 0 0 0
1371168 1 0.9056504950419303 5.267870169723346 1.0939425402758376 0 0 0
1371157 1 2.0048263827361286 5.117014646118979 3.6651573216846014 0 0 0
1371153 1 1.1976077478367873 4.193417892881398 2.7745256576568473 0 0 0
1371160 1 4.599172232951583 0.2877192172630314 5.6968845397685115 0 0 0
1371181 1 2.0812161593144833 4.99998959852382 4.82518238985221 0 0 0
1371161 1 0.5115081474704241 4.917434535416511 3.3222367453026758 0 0 0
1371102 1 3.241602856312694 1.619206047439578 3.996039316987637 0 0 0
1371154 1 1.3184110919565015 0.5352225129190937 1.4847746312081695 0 0 0
1371170 1 1.564069511165875 1.3162741648574705 0.6198887595068145 0 0 0
1371163 1 0.9678233736044836 0.20744017055604613 0.44694653546761093 0 0 0
1371200 1 0.28972344207098866 3.381890887106718 1.4401396026090438 0 0 0
1371208 1 0.5900701920455649 5.30971770980848 2.425548751105344 0 0 0
1371180 1 0.511755184508746 3.069386038495873 5.17114900013951 0 0 0
1371193 1 3.7980235404325757 5.38164405030275 5.291553438311235 0 0 0
1371185 1 4.050511696399428 0.950081385183186 2.0178407738068334 0 0 0
1371203 1 0.3647607454865988 4.533849393266182 0.40675262473838064 0 0 0
1371204 1 3.067572610949899 4.692872234942797 3.1036526836006213 0 0 0
1371210 1 4.943953304059782 5.023181332751728 4.60865955828161 0 0 0

Velocities

1371109 0.9379806265680957 -0.19684814479560417 -0.9631854504303456
1371167 -0.3633020777820497 0.44052414178747734 -0.8239260649673755
1370803 -1.0749435730706527 0.5822948604528257 -0.5385191381002041
1371056 -0.1938027423605733 -1.4828271775908028 -0.1482674862757547
1371189 -1.5878973254582815 0.3926347472310897 -0.18308081789130223
1370853 1.3766880252988685 -0.38024558401954317 0.4491281920581208
1371158 2.6247682673338084 0.9518519128648011 0.7471748349209454
1371205 0.1704931775780247 -0.2649723316791947 0.5800612695645214
1371151 -0.3106788183578168 1.8912152424912174 -0.08654025087192749
1371173 0.5146680683277455 1.1046842170750049 -0.26868563131962264
1370896 0.856547314708634 -0.2635034037407568 0.10322959793477043
1371075 -0.35057481402979696 0.40581409190727835 0.21434244581249776
1370986 0.054747060554966635 -1.1341410179862956 -0.8777380204342048
1370996 0.19570194860363238 -0.10707044659957403 -1.0279185672172282
1371196 -0.6895937470327793 0.6777650795952492 0.47384498542747233
1371202 0.4545332135363759 0.32612943238608133 0.2921089650501963
1371177 -0.846425681314401 -0.23036397734926653 1.1162139465051624
1371195 0.8820840322313996 2.0454074241918403 0.19564648010776145
1371069 -1.7548216696953065 0.6626149640498591 -0.45877445323384436
1371001 -1.407395732470569 -0.19345658359526616 -1.5520037731939234
1371186 1.1085740467359437 1.2785595053996608 -0.14400156511409568
1371036 -0.014754100361012889 -0.6441769592912273 -0.1361204323613402
1371184 -0.3501697176185392 -0.40860870113577225 0.1284909685858609
1371165 0.18671750276245128 0.8524257783374133 0.276979666815579
1370726 1.1687590935551748 -1.671190714347104 -0.47714975801791315
1371068 -0.9862835552942701 0.18243947686229062 0.21689262625666775
1371107 1.34556083340363 -2.889783026720531 0.027573328836926942
1371198 0.6811600591652011 -0.4594943265925156 0.24405904472403356
1371015 -0.5166376721467 0.6566436679762993 -1.6243024562526667
1371147 -1.4757149782768701 -0.6453072413864253 0.36073003292776556
1371178 -0.930268389297031 -0.6710833411283678 1.3087657697433925
1371139 -0.8223544788705639 -2.850716700104817 1.1121251627147641
1371098 0.33293251140021773 0.37917557983899747 -0.5596908162353272
1370925 -0.7310766657852201 0.24788681578997596 0.6499722392018658
1370980 0.9451798982992199 0.080489344576678 0.4052956435159395
1371209 0.3759942490103317 -0.8815655745017432 0.29991796449678026
1371207 2.2271968691869053 -0.4874145008612701 -0.06823704184848423
1371095 -0.4457370484384737 0.5018344935660546 0.8886146698959401
1371030 0.14388220205028832 -0.5573568700429535 0.31441951110128963
1371050 0.13750411453116324 0.7144943830688398 -0.6441148035508903
1371192 -0.398079881990761 1.387448243199863 0.32553427357840786
1371201 -1.010285178399298 -0.32725480004678037 -0.7430110273541188
1371093 -0.5238482345120712 -0.23897692576636786 1.7027556169121163
1371144 -0.7051190021812799 -1.1603709951836239 -1.7878415595473933
1371133 0.7509025533083323 -1.1844885822036164 -2.1888135088348006
1371206 -0.9877815003635556 0.22943997044221787 -1.05862123711239
1371191 -0.8153670208612547 -0.8467387390752963 0.39195248584344866
1371187 -0.2129560860431315 1.1047295546891 -0.18966205902258407
1370997 0.31843752303842876 1.180366297384724 1.8219500840371334
1371027 0.23692076242108778 -1.2995722577775777 0.4695519036001347
1371038 1.7408161949146674 -0.01227024427343211 -1.0019971909617564
1371086 -0.44191945556148693 -0.6286130887228255 -0.4423819963188064
1371058 -0.6351124372376523 -1.687895276358332 0.46206382315749395
1371168 0.5468083797332957 0.6261117357224149 -0.6681029936328261
1371157 0.9302348405575677 -2.2463156527803645 -1.3790201017267016
1371153 0.41095258678737007 0.11802750068625685 -0.6102968318266236
1371160 0.19038513959513512 0.2910811374054708 0.836563733184606
1371181 0.03277103660205657 -0.12972841257797416 1.3776141948889065
1371161 -0.3599876461761088 0.22340042848637906 -2.784366651706402
1371102 -2.1893356544277713 0.6494217837015885 -0.005264300127164062
1371154 -0.9967769744414686 -0.035217797269260345 -0.8184587536564814
1371170 0.07428752161727623 -0.2562848138811052 -0.6739734535891151
1371163 0.8578614552826433 -0.06648931587985776 -0.7486750075802683
1371200 -1.74441698091829 1.56457116346074 -0.3659479842896916
1371208 0.9230411431080687 1.3984680300994494 -0.6517691670347703
1371180 -1.1906578332280784 0.43843969345334 -0.7338867244084742
1371193 -0.09012388310082026 -0.4136363348099716 -0.31989888360926105
1371185 -0.6541052290170797 0.6592347128798169 -1.7813716239015183
1371203 0.8598918445656939 0.14722104138747688 -1.1843709736083015
1371204 -1.035195824669118 0.6244985007708824 1.2214624938189471
1371210 0.741281142019274 1.2849472037801157 1.7850279984580166
