LAMMPS data file via write_data, version 22 Dec 2022, timestep = 0

27 atoms
1 atom types

0 22.5 xlo xhi
0 22.5 ylo yhi
0 22.5 zlo zhi

Masses

1 28

Pair Coeffs # lj/cut

1 0.1892 3.75

Atoms # atomic

535006 1 7.264576182823896 10.73190472122836 11.122649685071153 0 0 0
535004 1 11.286766528983959 8.185052633371694 9.17960907806624 0 0 0
534967 1 12.454946025020888 4.277842525987813 9.19933427716574 0 0 0
534984 1 11.582709099670268 4.591838158244191 4.023925610130617 0 0 0
534990 1 13.86196573933678 7.558181033263998 3.348626068024256 0 0 0
534989 1 4.941660032813279 13.98017149277971 8.74227914854059 0 0 0
534972 1 4.052202793793847 16.87235529319027 4.6754126489047945 0 0 0
534985 1 5.28490970390146 20.477393471858182 9.552081520460584 0 0 0
534926 1 1.158471342249993 20.927849195631154 10.861430972750025 1 -1 0
534995 1 7.819904673062222 16.137840156740435 10.179514336483328 0 0 0
535002 1 1.9990646278015638 16.779199460884186 10.505339080470307 0 0 0
534996 1 9.53186657770158 16.581571430471527 6.471031934940737 0 0 0
534958 1 8.090248279548366 13.302834369383213 3.2372462236030257 0 0 1
534994 1 21.0559036555029 18.5727380372457 5.008191988341601 0 0 0
534949 1 17.32997048195916 11.313890287565952 1.0540631208820648 0 0 0
535000 1 0.5969830402624714 9.993957691357451 14.946918644684795 0 0 0
535003 1 6.149736256874043 9.117269282051021 18.9448234315239 0 0 0
534918 1 0.09187401672446793 9.626599088137315 20.250874323887228 0 0 -1
535005 1 4.513160189619828 10.683306940450942 14.839748158976318 0 0 0
534993 1 14.775944911304833 5.306124300372845 16.531116366400905 0 0 0
534955 1 8.430780229359298 15.623314841707847 20.052544583823792 0 0 0
534931 1 4.7129245203514225 16.122413546369614 21.904473833928108 0 0 0
534982 1 4.3388963881129845 12.83159501493517 18.61741601541518 0 0 0
534980 1 5.928800882272796 15.356428358869826 13.991427525175471 0 0 0
535001 1 17.00923115411272 20.6480071724616 14.056547562152403 0 0 0
534999 1 15.440841073375585 13.21592022348937 15.471196185784045 0 0 0
534976 1 20.49706819676658 15.725183055840988 20.651619519410477 0 0 0

Velocities

535006 0.0029814614470158943 0.0006981785700958244 -0.0027424056743728404
535004 -0.001657604537175719 -0.0017315163720728177 0.0013098621535743717
534967 -0.001575157872669498 0.0004714435215101057 3.710734057272576e-05
534984 -0.0024150670563569936 -0.0020440726817210954 -0.0011640103891493413
534990 -0.001373183905716723 0.003625895570220926 -0.0007901471729032143
534989 0.0008457637008266214 -0.0026926375259499536 0.0010717744820963188
534972 -0.0008117184704962293 0.0016549496897251064 0.0009518037453059527
534985 0.0009523418381386411 0.001159927915865244 -0.0003685995294247624
534926 -0.0006172064971117115 -0.0018600665306291822 0.0004211386538049616
534995 -0.003987975599398582 0.0005527531027287461 0.0010665326763605843
535002 -8.035599819507148e-05 -3.224468317528888e-05 0.0005575567161768792
534996 0.00048527168839115057 -0.00097846875023139 0.0039638383944673354
534958 -0.0028628555122600582 0.001278002962774319 0.005041426517666187
534994 0.0006830218202098067 -0.001037397970702802 0.000130762050015602
534949 0.0012735968626145875 0.0006362597500159382 0.003237656962849452
535000 -0.0027730000461698248 0.00029216243886416506 -0.0012339051234619466
535003 0.0037105058826858283 0.0016620429228382284 -0.0005252354320216873
534918 0.0011125110221692222 0.0023211634267041596 -0.0005517985976020752
535005 0.0025679679542128016 -0.0036667761854439415 0.0004355399653288263
534993 -0.0025120628492980167 -0.002221153505405553 0.0005193414947853123
534955 0.000830705301120739 0.00022924870552617135 -0.0017798381323898516
534931 -0.0003812001149837014 -0.004581045188344116 0.0015741324520642554
534982 0.00036746444819707057 0.0036497895377256714 -0.0009186425331421601
534980 0.0028895985979399403 -0.00012821246269107762 0.002360226823374046
535001 -0.00124822306216399 0.0019430155400149164 -0.0009362843059396285
534999 -7.79345363526283e-05 -0.0020452536328420166 -0.0002675860516933366
534976 0.002109618716084368 -0.0014416037542182847 -0.0016028953678692605
