LAMMPS data file via write_data, version 22 Dec 2022, timestep = 10000

60 atoms
1 atom types

0 22.5 xlo xhi
0 22.5 ylo yhi
0 22.5 zlo zhi

Masses

1 28

Pair Coeffs # lj/cut

1 95.21 3.75

Atoms # atomic

7 1 10.973865745809807 6.2615898252751645 3.540193399665971 0 0 0
23 1 9.26608908584624 8.1592658179157 6.780601708814771 0 0 0
28 1 11.143819596452479 7.175957578083478 10.31901484905694 0 0 0
9 1 7.906499687305887 1.5402445499972635 7.390151804029079 0 1 0
20 1 11.103076159536428 4.401013328414889 7.331010668925472 0 1 0
36 1 10.444861248342725 2.283000896118114 3.89606105717647 0 1 0
39 1 7.319445526608936 4.920965716438814 5.1707961872084045 0 0 1
113 1 7.716074929906091 5.071346931658385 1.1278803824111268 0 0 0
114 1 7.524917287763644 8.784855443418394 3.0654375334575015 0 0 0
53 1 10.219448312753553 2.2677924489918126 10.787690205400676 0 0 0
123 1 7.546158981530996 5.2940025915363815 9.301555951964833 0 0 0
163 1 6.741358968076001 1.0201764532924515 2.605650486240932 0 0 0
43 1 10.587930528953624 8.348400123812464 0.060880915755820664 0 0 0
5 1 10.963206392230065 11.109834211231162 8.983588161637803 0 0 0
45 1 11.128669979110677 10.556338913066476 3.8881119081695132 0 0 0
176 1 11.837947270990327 0.3797835343888871 7.521862474047515 0 1 0
101 1 8.029460136792363 17.136519069381354 5.975999091507852 0 0 0
27 1 10.191534567713516 22.121479561143346 0.7069841356514887 0 0 0
35 1 9.341300398270278 18.23579372849126 1.9851947515202633 0 0 0
54 1 9.165855382180712 21.03140831111535 4.879484914885593 0 0 0
63 1 10.55825772465126 14.637578213651462 3.7770368402251187 0 0 0
97 1 8.6287985970866 12.21802123436612 0.7828859914014646 0 0 1
116 1 10.095015642044629 19.427895843716282 8.64544533968224 0 0 0
118 1 8.082139954940489 13.526222684665683 10.724661176197538 0 0 0
161 1 8.068125513181167 12.48550003556791 6.299097789823597 0 0 0
168 1 6.998034315415678 17.46273919123352 10.257587061849238 0 0 0
169 1 5.9408188019603605 20.34160454773419 7.347633768500595 0 0 0
172 1 5.646535802700803 19.327235992451772 3.3553251369648267 0 0 0
174 1 6.4948515931586 14.970726216663966 2.9955234709174956 0 0 0
164 1 7.5398161199594895 21.68952815918696 10.899771455163032 0 -1 0
96 1 10.876524612250055 15.249158086604053 8.099961554212474 0 0 0
42 1 8.65801724635902 9.795859556317241 12.511563024256143 0 0 0
112 1 7.804611258117755 9.601415185305017 19.985019421430795 0 0 0
12 1 8.158370133330283 7.726830882125928 16.346635890354673 0 0 0
32 1 10.954306956126494 1.0370116180446993 19.054264477246583 0 0 0
33 1 9.450848041079386 0.9030264215092297 14.665066305624803 0 0 0
2 1 7.502433568938836 1.9009931550365817 20.991956699868645 1 1 0
109 1 8.893958887268765 5.267018326216858 13.277008726623368 0 0 0
111 1 8.939971444401897 5.600066062342402 19.810309788822323 0 0 0
127 1 7.160579553647244 3.360558149107068 16.90081204236526 0 0 0
99 1 11.108612420553635 4.44895224480376 16.540378416674407 0 0 0
102 1 11.359859709329811 3.6621347065838563 22.498013555071324 0 0 0
94 1 11.962198393634628 8.168401816938223 14.329337281328314 0 0 0
131 1 11.742142538885716 8.189651051158815 18.46521682686429 0 0 0
88 1 10.082636975721744 11.379650955498079 16.29360905582721 0 0 0
98 1 10.670420971778405 16.76527267986222 11.93793044445938 0 0 0
68 1 10.213280287903395 19.101798792417064 20.432304153653035 0 0 0
29 1 7.621048723636681 13.465898161738123 18.850404332787946 0 0 0
86 1 11.054564681395231 15.568600209461783 17.96372042454954 0 0 0
13 1 7.433419813836657 17.48681115265321 17.835042642585513 0 0 0
18 1 7.243513891819643 16.23797981265839 21.72671134943457 0 0 0
24 1 8.35373955446005 14.800691809878067 14.727248620813358 0 0 0
93 1 7.622212830987855 21.53105041293012 17.86429011629163 0 0 0
117 1 7.979539195298928 19.115255389183382 14.097326005621515 0 0 0
149 1 6.598527377517209 20.449633931717635 21.99749037879405 0 0 0
57 1 11.241292139627609 15.396990721764498 22.22306069602402 0 0 0
56 1 11.145282654392162 19.765572369687977 16.474817346071262 0 0 0
19 1 11.362460083031296 11.866615507223928 20.206829912591225 0 0 0
22 1 11.439601269988149 20.878544690962194 12.20062100174865 0 0 0
76 1 11.671403947831756 12.78615120881523 12.84336655765927 0 0 0

Velocities

7 0 0 0
23 0 0 0
28 0 0 0
9 0 0 0
20 0 0 0
36 0 0 0
39 0 0 0
113 -0.0007447844301028653 0.0015613077550997044 0.0011759055899054236
114 -0.0016048287494488563 0.0014875998613238467 0.00018058172230433873
53 0 0 0
123 0.0014526736310996283 -0.00030081754707462875 0.0008850580956334666
163 0.0012603309894722607 -0.0009286724443604745 -0.0021757275009641345
43 0 0 0
5 0 0 0
45 0 0 0
176 0.001050886119033294 0.0007933560633827415 0.0011184156175274766
101 -0.0008372020958266282 -0.0001542042520457631 -0.0004034145835884602
27 0 0 0
35 0 0 0
54 0 0 0
63 0 0 0
97 0.0008907125119685236 0.0005446092601957991 0.001622996767165515
116 0.0005773013523260001 0.001206834300204342 0.000978282365497402
118 0.0012879463515563902 -0.0004238123645066966 -0.00011530706844593635
161 -0.00018257919140030025 0.0004578402540583298 -0.00293788619927573
168 -0.0012329265777812853 0.002857362809954328 -0.0012358256767844025
169 0.00011381900808537809 0.003921327934298234 -0.0032076117763223245
172 -0.0006345763358138715 -0.001122485825468209 0.0018807164801903742
174 0.0023307739242942422 -0.0026650751311572364 0.0022800708968867644
164 -0.0002990827094666578 0.0004066216942779433 0.0012949455654610064
96 0.0012589819644687513 0.0023805074518037706 -0.0049499620604833315
42 0 0 0
112 -0.0010416412553086616 -0.001431206359413459 0.0005761234928905165
12 0 0 0
32 0 0 0
33 0 0 0
2 0 0 0
109 0.002907075108851089 0.0030982857555427127 -0.00041863282416923443
111 0.002725952207901484 0.00035564352210519024 0.003792658875775153
127 0.00032418244827103515 -0.0015838650845588762 0.0007360175098822116
99 2.750836003203103e-05 0.0011203120233721536 0.002371842768527901
102 0.0007405620019305008 0.0014614454178553326 0.0001094314557878971
94 0.0016348136339738167 -0.0016094291852283078 0.002001509480011493
131 -8.065179760270583e-05 0.0009497635502565128 -0.0020201656348098735
88 0 0 0
98 0.0005890166584990705 0.0012428762594834761 0.002665435043868778
68 0 0 0
29 0 0 0
86 0 0 0
13 0 0 0
18 0 0 0
24 0 0 0
93 -0.0019366988991081147 0.0012927191406555598 0.0012529554597662928
117 -0.00021141761415322015 0.000774171517918914 -6.702759629779674e-05
149 0.00023376411534159846 0.0028570548621112833 -0.0008946698031960721
57 0 0 0
56 0 0 0
19 0 0 0
22 0 0 0
76 0 0 0
